<?xml version="1.0" encoding="UTF-8"?>

<!-- generated on 2025-08-05 09:25:03 by Eclipse SUMO sumo Version 1.24.0
<sumoConfiguration xmlns:xsi="http://www.w3.org/2001/XMLSchema-instance" xsi:noNamespaceSchemaLocation="http://sumo.dlr.de/xsd/sumoConfiguration.xsd">

    <input>
        <net-file value="network/katubedda_junction_network.net.xml"/>
        <route-files value="demand/calibrated_demand_warmup.rou.xml,                             demand/calibrated_demand_6am_7am.rou.xml,                             demand/bus_demand.rou.xml"/>
        <additional-files value="additionals/bus/bus_stops.add.xml,                                 additionals/lane_detectors_dynamic.add.xml,                                 additionals/vtype_dist_base.xml"/>
    </input>

    <output>
        <queue-output value="outputs/dynamic_DQL_vehicle_data/11332.dynamic_DQL_vehicle_data.xml"/>
        <queue-output.period value="300"/>
        <tripinfo-output value="outputs/dynamic_DQL_vehicle_data/11332.tripinfo_dynamic_DQL_vehicle_data.xml"/>
    </output>

    <processing>
        <lateral-resolution value="1.2"/>
        <collision.action value="none"/>
    </processing>

    <traci_server>
        <remote-port value="49437"/>
    </traci_server>

    <random_number>
        <seed value="11332"/>
    </random_number>

    <gui_only>
        <gui-settings-file value="additionals/satelite_image_bg.xml"/>
    </gui_only>

</sumoConfiguration>
-->

<tripinfos xmlns:xsi="http://www.w3.org/2001/XMLSchema-instance" xsi:noNamespaceSchemaLocation="http://sumo.dlr.de/xsd/tripinfo_file.xsd">
    <tripinfo id="0_1" depart="5.00" departLane="MRT_to_KB_001_2" departPos="2.10" departPosLat="0.00" departSpeed="0.00" departDelay="0.36" arrival="31.00" arrivalLane="KBJ_to_CMB_002_1" arrivalPos="146.55" arrivalPosLat="0.00" arrivalSpeed="16.72" duration="26.00" routeLength="348.78" waitingTime="0.00" waitingCount="0" stopTime="0.00" timeLoss="3.84" rerouteNo="0" devices="tripinfo_0_1" vType="Motor_Cycle" speedFactor="1.00" vaporized=""/>
    <tripinfo id="0_3" depart="8.00" departLane="CMB_to_KBJ_003_2" departPos="2.10" departPosLat="0.00" departSpeed="0.00" departDelay="0.39" arrival="32.00" arrivalLane="KB_to_MRT_001_1" arrivalPos="44.82" arrivalPosLat="1.15" arrivalSpeed="14.72" duration="24.00" routeLength="301.72" waitingTime="0.00" waitingCount="0" stopTime="0.00" timeLoss="4.31" rerouteNo="0" devices="tripinfo_0_3" vType="Motor_Cycle" speedFactor="0.95" vaporized=""/>
    <tripinfo id="0_10" depart="14.00" departLane="MRT_to_KB_003_2" departPos="4.30" departPosLat="0.00" departSpeed="0.00" departDelay="0.20" arrival="33.00" arrivalLane="KBJ_to_CMB_001_3" arrivalPos="57.78" arrivalPosLat="-0.45" arrivalSpeed="18.81" duration="19.00" routeLength="231.99" waitingTime="0.00" waitingCount="0" stopTime="0.00" timeLoss="5.17" rerouteNo="0" devices="tripinfo_0_10" vType="Car" speedFactor="1.18" vaporized=""/>
    <tripinfo id="0_8" depart="13.00" departLane="MRT_to_KB_003_1" departPos="4.30" departPosLat="0.00" departSpeed="0.00" departDelay="0.78" arrival="35.00" arrivalLane="KBJ_to_CMB_001_2" arrivalPos="57.78" arrivalPosLat="-0.70" arrivalSpeed="14.02" duration="22.00" routeLength="231.99" waitingTime="0.00" waitingCount="0" stopTime="0.00" timeLoss="3.65" rerouteNo="0" devices="tripinfo_0_8" vType="Car" speedFactor="0.89" vaporized=""/>
    <tripinfo id="0_11" depart="16.00" departLane="MRT_to_KB_003_1" departPos="4.30" departPosLat="0.00" departSpeed="0.00" departDelay="0.50" arrival="37.00" arrivalLane="KBJ_to_CMB_001_2" arrivalPos="57.78" arrivalPosLat="0.50" arrivalSpeed="15.50" duration="21.00" routeLength="231.99" waitingTime="0.00" waitingCount="0" stopTime="0.00" timeLoss="3.57" rerouteNo="0" devices="tripinfo_0_11" vType="Car" speedFactor="0.94" vaporized=""/>
    <tripinfo id="0_7" depart="12.00" departLane="CMB_to_KBJ_002_2" departPos="4.30" departPosLat="0.00" departSpeed="0.00" departDelay="0.80" arrival="38.00" arrivalLane="KB_to_MRT_002_2" arrivalPos="130.27" arrivalPosLat="-1.45" arrivalSpeed="15.57" duration="26.00" routeLength="292.96" waitingTime="0.00" waitingCount="0" stopTime="0.00" timeLoss="7.48" rerouteNo="0" devices="tripinfo_0_7" vType="Car" speedFactor="0.96" vaporized=""/>
    <tripinfo id="0_0" depart="5.00" departLane="MRT_to_KB_003_1" departPos="4.30" departPosLat="0.00" departSpeed="0.00" departDelay="0.68" arrival="39.00" arrivalLane="KBJ_to_CMB_002_2" arrivalPos="146.55" arrivalPosLat="-0.45" arrivalSpeed="14.88" duration="34.00" routeLength="397.15" waitingTime="0.00" waitingCount="0" stopTime="0.00" timeLoss="6.19" rerouteNo="0" devices="tripinfo_0_0" vType="Car" speedFactor="0.93" vaporized=""/>
    <tripinfo id="0_4" depart="8.00" departLane="MRT_to_KB_003_2" departPos="2.10" departPosLat="0.00" departSpeed="0.00" departDelay="0.05" arrival="41.00" arrivalLane="KBJ_to_CMB_002_2" arrivalPos="146.55" arrivalPosLat="0.15" arrivalSpeed="15.86" duration="33.00" routeLength="399.35" waitingTime="0.00" waitingCount="0" stopTime="0.00" timeLoss="6.32" rerouteNo="0" devices="tripinfo_0_4" vType="Motor_Cycle" speedFactor="1.00" vaporized=""/>
    <tripinfo id="0_5" depart="10.00" departLane="MRT_to_KB_001_2" departPos="4.30" departPosLat="0.00" departSpeed="0.00" departDelay="0.85" arrival="42.00" arrivalLane="KBJ_to_CMB_002_1" arrivalPos="146.55" arrivalPosLat="-0.70" arrivalSpeed="12.77" duration="32.00" routeLength="346.58" waitingTime="0.00" waitingCount="0" stopTime="0.00" timeLoss="3.92" rerouteNo="0" devices="tripinfo_0_5" vType="Car" speedFactor="0.80" vaporized=""/>
    <tripinfo id="0_6" depart="13.00" departLane="MRT_to_KB_001_2" departPos="4.30" departPosLat="0.00" departSpeed="0.00" departDelay="2.22" arrival="43.00" arrivalLane="KBJ_to_CMB_002_1" arrivalPos="146.55" arrivalPosLat="-0.70" arrivalSpeed="15.50" duration="30.00" routeLength="346.58" waitingTime="0.00" waitingCount="0" stopTime="0.00" timeLoss="7.03" rerouteNo="0" devices="tripinfo_0_6" vType="Car" speedFactor="0.97" vaporized=""/>
    <tripinfo id="0_9" depart="14.00" departLane="CMB_to_KBJ_001_2" departPos="4.30" departPosLat="0.00" departSpeed="0.00" departDelay="0.41" arrival="46.00" arrivalLane="30093400_1" arrivalPos="127.33" arrivalPosLat="-0.55" arrivalSpeed="6.70" duration="32.00" routeLength="242.06" waitingTime="0.00" waitingCount="0" stopTime="0.00" timeLoss="5.74" rerouteNo="0" devices="tripinfo_0_9" vType="Car" speedFactor="0.89" vaporized=""/>
    <tripinfo id="0_17" depart="30.00" departLane="MRT_to_KB_003_1" departPos="2.65" departPosLat="0.00" departSpeed="0.00" departDelay="0.65" arrival="51.00" arrivalLane="KBJ_to_CMB_001_3" arrivalPos="57.78" arrivalPosLat="0.45" arrivalSpeed="16.32" duration="21.00" routeLength="233.64" waitingTime="0.00" waitingCount="0" stopTime="0.00" timeLoss="4.27" rerouteNo="0" devices="tripinfo_0_17" vType="3_Wheeler" speedFactor="0.99" vaporized=""/>
    <tripinfo id="0_12" depart="22.00" departLane="MRT_to_KB_003_1" departPos="4.30" departPosLat="0.00" departSpeed="0.00" departDelay="0.83" arrival="54.00" arrivalLane="KBJ_to_CMB_002_2" arrivalPos="146.55" arrivalPosLat="-0.45" arrivalSpeed="15.96" duration="32.00" routeLength="397.15" waitingTime="0.00" waitingCount="0" stopTime="0.00" timeLoss="5.51" rerouteNo="0" devices="tripinfo_0_12" vType="Car" speedFactor="0.98" vaporized=""/>
    <tripinfo id="0_16" depart="30.00" departLane="MRT_to_KB_001.37_2" departPos="5.40" departPosLat="0.00" departSpeed="0.00" departDelay="0.85" arrival="55.00" arrivalLane="KBJ_to_CMB_002_1" arrivalPos="146.55" arrivalPosLat="-0.70" arrivalSpeed="14.49" duration="25.00" routeLength="296.69" waitingTime="0.00" waitingCount="0" stopTime="0.00" timeLoss="3.94" rerouteNo="0" devices="tripinfo_0_16" vType="Van" speedFactor="0.88" vaporized=""/>
    <tripinfo id="0_14" depart="26.00" departLane="MRT_to_KB_001_2" departPos="4.30" departPosLat="0.00" departSpeed="0.00" departDelay="0.40" arrival="58.00" arrivalLane="KBJ_to_CMB_002_1" arrivalPos="146.55" arrivalPosLat="-0.70" arrivalSpeed="13.67" duration="32.00" routeLength="346.58" waitingTime="0.00" waitingCount="0" stopTime="0.00" timeLoss="5.76" rerouteNo="0" devices="tripinfo_0_14" vType="Car" speedFactor="0.86" vaporized=""/>
    <tripinfo id="0_15" depart="30.00" departLane="MRT_to_KB_001_2" departPos="2.10" departPosLat="0.00" departSpeed="0.00" departDelay="1.81" arrival="59.00" arrivalLane="KBJ_to_CMB_002_1" arrivalPos="146.55" arrivalPosLat="1.10" arrivalSpeed="14.62" duration="29.00" routeLength="348.78" waitingTime="0.00" waitingCount="0" stopTime="0.00" timeLoss="4.13" rerouteNo="0" devices="tripinfo_0_15" vType="Motor_Cycle" speedFactor="0.90" vaporized=""/>
    <tripinfo id="0_18" depart="35.00" departLane="MRT_to_KB_001.37_4" departPos="5.40" departPosLat="0.00" departSpeed="0.00" departDelay="0.18" arrival="60.00" arrivalLane="KBJ_to_CMB_002_2" arrivalPos="146.55" arrivalPosLat="-0.45" arrivalSpeed="14.63" duration="25.00" routeLength="296.69" waitingTime="0.00" waitingCount="0" stopTime="0.00" timeLoss="3.81" rerouteNo="0" devices="tripinfo_0_18" vType="Van" speedFactor="0.89" vaporized=""/>
    <tripinfo id="0_20" depart="43.00" departLane="MRT_to_KB_003_2" departPos="2.10" departPosLat="0.00" departSpeed="0.00" departDelay="0.97" arrival="65.00" arrivalLane="KBJ_to_CMB_001_3" arrivalPos="57.78" arrivalPosLat="0.15" arrivalSpeed="15.06" duration="22.00" routeLength="234.19" waitingTime="0.00" waitingCount="0" stopTime="0.00" timeLoss="5.97" rerouteNo="0" devices="tripinfo_0_20" vType="Motor_Cycle" speedFactor="1.02" vaporized=""/>
    <tripinfo id="0_25" depart="52.00" departLane="MRT_to_KB_001.37_2" departPos="4.30" departPosLat="0.00" departSpeed="0.00" departDelay="0.01" arrival="65.00" arrivalLane="KBJ_to_CMB_001_2" arrivalPos="57.78" arrivalPosLat="0.50" arrivalSpeed="15.90" duration="13.00" routeLength="132.63" waitingTime="0.00" waitingCount="0" stopTime="0.00" timeLoss="3.61" rerouteNo="0" devices="tripinfo_0_25" vType="Car" speedFactor="0.99" vaporized=""/>
    <tripinfo id="0_26" depart="54.00" departLane="MRT_to_KB_001.37_4" departPos="4.30" departPosLat="0.00" departSpeed="0.00" departDelay="0.87" arrival="67.00" arrivalLane="KBJ_to_CMB_001_4" arrivalPos="57.78" arrivalPosLat="-0.60" arrivalSpeed="16.46" duration="13.00" routeLength="132.63" waitingTime="0.00" waitingCount="0" stopTime="0.00" timeLoss="3.61" rerouteNo="0" devices="tripinfo_0_26" vType="Car" speedFactor="1.00" vaporized=""/>
    <tripinfo id="0_19" depart="39.00" departLane="MRT_to_KB_003_1" departPos="2.10" departPosLat="0.00" departSpeed="0.00" departDelay="0.88" arrival="77.00" arrivalLane="KBJ_to_CMB_002_1" arrivalPos="146.55" arrivalPosLat="1.40" arrivalSpeed="11.48" duration="38.00" routeLength="399.35" waitingTime="0.00" waitingCount="0" stopTime="0.00" timeLoss="4.67" rerouteNo="0" devices="tripinfo_0_19" vType="Motor_Cycle" speedFactor="0.78" vaporized=""/>
    <tripinfo id="0_27" depart="59.00" departLane="MRT_to_KB_001_2" departPos="2.65" departPosLat="0.00" departSpeed="0.00" departDelay="0.43" arrival="86.00" arrivalLane="KBJ_to_CMB_002_1" arrivalPos="146.55" arrivalPosLat="0.00" arrivalSpeed="16.62" duration="27.00" routeLength="348.23" waitingTime="0.00" waitingCount="0" stopTime="0.00" timeLoss="4.57" rerouteNo="0" devices="tripinfo_0_27" vType="3_Wheeler" speedFactor="1.01" vaporized=""/>
    <tripinfo id="0_2" depart="8.00" departLane="MRT_to_KB_001_4" departPos="2.10" departPosLat="0.00" departSpeed="0.00" departDelay="0.71" arrival="95.00" arrivalLane="KBJ_to_P_2" arrivalPos="128.65" arrivalPosLat="0.00" arrivalSpeed="10.08" duration="87.00" routeLength="249.81" waitingTime="53.00" waitingCount="1" stopTime="0.00" timeLoss="63.10" rerouteNo="0" devices="tripinfo_0_2" vType="Motor_Cycle" speedFactor="0.77" vaporized=""/>
    <tripinfo id="0_21" depart="47.00" departLane="MRT_to_KB_003_3" departPos="4.30" departPosLat="0.00" departSpeed="0.00" departDelay="0.07" arrival="97.00" arrivalLane="KBJ_to_P_2" arrivalPos="128.65" arrivalPosLat="-0.70" arrivalSpeed="10.79" duration="50.00" routeLength="298.18" waitingTime="13.00" waitingCount="1" stopTime="0.00" timeLoss="23.25" rerouteNo="0" devices="tripinfo_0_21" vType="Car" speedFactor="0.83" vaporized=""/>
    <tripinfo id="0_24" depart="52.00" departLane="P_to_KBJ_1" departPos="5.40" departPosLat="0.00" departSpeed="0.00" departDelay="0.04" arrival="98.00" arrivalLane="KB_to_MRT_002_2" arrivalPos="130.27" arrivalPosLat="-0.45" arrivalSpeed="13.49" duration="46.00" routeLength="334.84" waitingTime="8.00" waitingCount="1" stopTime="0.00" timeLoss="17.75" rerouteNo="0" devices="tripinfo_0_24" vType="Van" speedFactor="0.82" vaporized=""/>
    <tripinfo id="0_36" depart="89.00" departLane="MRT_to_KB_001_4" departPos="2.10" departPosLat="0.00" departSpeed="0.00" departDelay="0.67" arrival="116.00" arrivalLane="KBJ_to_P_2" arrivalPos="128.65" arrivalPosLat="0.00" arrivalSpeed="10.40" duration="27.00" routeLength="249.81" waitingTime="0.00" waitingCount="0" stopTime="0.00" timeLoss="4.70" rerouteNo="0" devices="tripinfo_0_36" vType="Motor_Cycle" speedFactor="0.85" vaporized=""/>
    <tripinfo id="0_22" depart="49.00" departLane="P_to_KBJ_2" departPos="5.40" departPosLat="0.00" departSpeed="0.00" departDelay="0.12" arrival="132.00" arrivalLane="KBJ_to_CMB_002_3" arrivalPos="146.55" arrivalPosLat="-0.60" arrivalSpeed="16.07" duration="83.00" routeLength="387.71" waitingTime="45.00" waitingCount="1" stopTime="0.00" timeLoss="56.17" rerouteNo="0" devices="tripinfo_0_22" vType="Van" speedFactor="0.98" vaporized=""/>
    <tripinfo id="0_35" depart="89.00" departLane="MRT_to_KB_003_1" departPos="6.35" departPosLat="0.00" departSpeed="0.00" departDelay="0.92" arrival="153.00" arrivalLane="KBJ_to_CMB_001_2" arrivalPos="57.78" arrivalPosLat="-0.57" arrivalSpeed="13.84" duration="64.00" routeLength="229.94" waitingTime="35.00" waitingCount="1" stopTime="0.00" timeLoss="47.22" rerouteNo="0" devices="tripinfo_0_35" vType="Goods_Vehicle" speedFactor="1.02" vaporized=""/>
    <tripinfo id="0_38" depart="97.00" departLane="MRT_to_KB_003_2" departPos="2.10" departPosLat="0.00" departSpeed="0.00" departDelay="0.11" arrival="153.00" arrivalLane="KBJ_to_CMB_001_3" arrivalPos="57.78" arrivalPosLat="1.25" arrivalSpeed="12.87" duration="56.00" routeLength="234.19" waitingTime="27.00" waitingCount="1" stopTime="0.00" timeLoss="37.29" rerouteNo="0" devices="tripinfo_0_38" vType="Motor_Cycle" speedFactor="0.86" vaporized=""/>
    <tripinfo id="0_45" depart="113.00" departLane="MRT_to_KB_003_2" departPos="2.10" departPosLat="0.00" departSpeed="0.00" departDelay="0.33" arrival="156.00" arrivalLane="KBJ_to_CMB_001_4" arrivalPos="57.78" arrivalPosLat="0.00" arrivalSpeed="15.53" duration="43.00" routeLength="234.19" waitingTime="8.00" waitingCount="2" stopTime="0.00" timeLoss="26.99" rerouteNo="0" devices="tripinfo_0_45" vType="Motor_Cycle" speedFactor="1.00" vaporized=""/>
    <tripinfo id="0_58" depart="143.00" departLane="MRT_to_KB_001.37_2" departPos="2.10" departPosLat="0.00" departSpeed="0.00" departDelay="0.75" arrival="159.00" arrivalLane="KBJ_to_CMB_001_3" arrivalPos="57.78" arrivalPosLat="-1.05" arrivalSpeed="15.97" duration="16.00" routeLength="134.83" waitingTime="0.00" waitingCount="0" stopTime="0.00" timeLoss="6.62" rerouteNo="0" devices="tripinfo_0_58" vType="Motor_Cycle" speedFactor="0.99" vaporized=""/>
    <tripinfo id="0_39" depart="102.00" departLane="CMB_to_KBJ_001_4" departPos="5.40" departPosLat="0.00" departSpeed="0.00" departDelay="0.60" arrival="160.00" arrivalLane="KB_to_MRT_002_3" arrivalPos="130.27" arrivalPosLat="0.55" arrivalSpeed="15.01" duration="58.00" routeLength="248.74" waitingTime="31.00" waitingCount="1" stopTime="0.00" timeLoss="41.42" rerouteNo="0" devices="tripinfo_0_39" vType="Van" speedFactor="0.92" vaporized=""/>
    <tripinfo id="0_29" depart="75.00" departLane="MRT_to_KB_001.37_2" departPos="2.10" departPosLat="0.00" departSpeed="0.00" departDelay="0.68" arrival="161.00" arrivalLane="KBJ_to_CMB_002_2" arrivalPos="146.55" arrivalPosLat="-1.05" arrivalSpeed="14.96" duration="86.00" routeLength="299.99" waitingTime="56.00" waitingCount="1" stopTime="0.00" timeLoss="65.21" rerouteNo="0" devices="tripinfo_0_29" vType="Motor_Cycle" speedFactor="0.92" vaporized=""/>
    <tripinfo id="0_32" depart="84.00" departLane="MRT_to_KB_001_2" departPos="2.10" departPosLat="0.00" departSpeed="0.00" departDelay="0.02" arrival="162.00" arrivalLane="KBJ_to_CMB_002_2" arrivalPos="146.55" arrivalPosLat="-0.15" arrivalSpeed="14.60" duration="78.00" routeLength="348.78" waitingTime="43.00" waitingCount="1" stopTime="0.00" timeLoss="55.10" rerouteNo="0" devices="tripinfo_0_32" vType="Motor_Cycle" speedFactor="0.97" vaporized=""/>
    <tripinfo id="0_33" depart="85.00" departLane="MRT_to_KB_001.37_4" departPos="4.30" departPosLat="0.00" departSpeed="0.00" departDelay="0.77" arrival="163.00" arrivalLane="KBJ_to_CMB_002_3" arrivalPos="146.55" arrivalPosLat="-0.60" arrivalSpeed="13.61" duration="78.00" routeLength="297.79" waitingTime="47.00" waitingCount="1" stopTime="0.00" timeLoss="55.79" rerouteNo="0" devices="tripinfo_0_33" vType="Car" speedFactor="0.85" vaporized=""/>
    <tripinfo id="0_28" depart="67.00" departLane="MRT_to_KB_001.37_3" departPos="5.40" departPosLat="0.00" departSpeed="0.00" departDelay="2.25" arrival="164.00" arrivalLane="KBJ_to_CMB_002_2" arrivalPos="146.55" arrivalPosLat="-0.45" arrivalSpeed="15.25" duration="97.00" routeLength="296.69" waitingTime="64.00" waitingCount="1" stopTime="0.00" timeLoss="76.66" rerouteNo="0" devices="tripinfo_0_28" vType="Van" speedFactor="0.92" vaporized=""/>
    <tripinfo id="0_62" depart="151.00" departLane="MRT_to_KB_001.37_4" departPos="4.30" departPosLat="0.00" departSpeed="0.00" departDelay="0.21" arrival="164.00" arrivalLane="KBJ_to_CMB_001_4" arrivalPos="57.78" arrivalPosLat="-0.60" arrivalSpeed="18.55" duration="13.00" routeLength="132.63" waitingTime="0.00" waitingCount="0" stopTime="0.00" timeLoss="4.72" rerouteNo="0" devices="tripinfo_0_62" vType="Car" speedFactor="1.14" vaporized=""/>
    <tripinfo id="0_31" depart="82.00" departLane="CMB_to_KBJ_003_2" departPos="2.10" departPosLat="0.00" departSpeed="0.00" departDelay="0.75" arrival="165.00" arrivalLane="30093400_1" arrivalPos="127.33" arrivalPosLat="1.15" arrivalSpeed="8.39" duration="83.00" routeLength="437.99" waitingTime="38.00" waitingCount="1" stopTime="0.00" timeLoss="51.48" rerouteNo="0" devices="tripinfo_0_31" vType="Motor_Cycle" speedFactor="1.12" vaporized=""/>
    <tripinfo id="0_34" depart="86.00" departLane="MRT_to_KB_001_3" departPos="4.30" departPosLat="0.00" departSpeed="0.00" departDelay="0.04" arrival="165.00" arrivalLane="KBJ_to_CMB_002_3" arrivalPos="146.55" arrivalPosLat="-0.60" arrivalSpeed="14.04" duration="79.00" routeLength="346.58" waitingTime="42.00" waitingCount="1" stopTime="0.00" timeLoss="53.32" rerouteNo="0" devices="tripinfo_0_34" vType="Car" speedFactor="0.89" vaporized=""/>
    <tripinfo id="0_37" depart="96.00" departLane="MRT_to_KB_003_1" departPos="4.30" departPosLat="0.00" departSpeed="0.00" departDelay="0.92" arrival="166.00" arrivalLane="KBJ_to_CMB_002_2" arrivalPos="146.55" arrivalPosLat="0.45" arrivalSpeed="15.87" duration="70.00" routeLength="397.15" waitingTime="27.00" waitingCount="2" stopTime="0.00" timeLoss="42.64" rerouteNo="0" devices="tripinfo_0_37" vType="Car" speedFactor="0.96" vaporized=""/>
    <tripinfo id="0_40" depart="108.00" departLane="MRT_to_KB_001.37_4" departPos="4.30" departPosLat="0.00" departSpeed="0.00" departDelay="1.21" arrival="166.00" arrivalLane="KBJ_to_CMB_002_3" arrivalPos="146.55" arrivalPosLat="0.40" arrivalSpeed="15.57" duration="58.00" routeLength="297.79" waitingTime="27.00" waitingCount="1" stopTime="0.00" timeLoss="38.83" rerouteNo="0" devices="tripinfo_0_40" vType="Car" speedFactor="0.98" vaporized=""/>
    <tripinfo id="0_42" depart="109.00" departLane="MRT_to_KB_001.37_2" departPos="2.65" departPosLat="0.00" departSpeed="0.00" departDelay="0.94" arrival="168.00" arrivalLane="KBJ_to_CMB_002_3" arrivalPos="146.55" arrivalPosLat="-1.20" arrivalSpeed="14.37" duration="59.00" routeLength="299.44" waitingTime="22.00" waitingCount="2" stopTime="0.00" timeLoss="37.67" rerouteNo="0" devices="tripinfo_0_42" vType="3_Wheeler" speedFactor="0.91" vaporized=""/>
    <tripinfo id="0_46" depart="116.00" departLane="MRT_to_KB_001.37_2" departPos="4.30" departPosLat="0.00" departSpeed="0.00" departDelay="0.47" arrival="169.00" arrivalLane="KBJ_to_CMB_002_2" arrivalPos="146.55" arrivalPosLat="-0.45" arrivalSpeed="12.88" duration="53.00" routeLength="297.79" waitingTime="18.00" waitingCount="2" stopTime="0.00" timeLoss="28.57" rerouteNo="0" devices="tripinfo_0_46" vType="Car" speedFactor="0.78" vaporized=""/>
    <tripinfo id="0_47" depart="116.00" departLane="MRT_to_KB_003_1" departPos="4.30" departPosLat="0.00" departSpeed="0.00" departDelay="0.17" arrival="169.00" arrivalLane="KBJ_to_CMB_002_3" arrivalPos="146.55" arrivalPosLat="-0.20" arrivalSpeed="16.12" duration="53.00" routeLength="397.15" waitingTime="9.00" waitingCount="2" stopTime="0.00" timeLoss="29.08" rerouteNo="0" devices="tripinfo_0_47" vType="Car" speedFactor="1.09" vaporized=""/>
    <tripinfo id="0_41" depart="108.00" departLane="MRT_to_KB_003_1" departPos="4.30" departPosLat="0.00" departSpeed="0.00" departDelay="0.15" arrival="170.00" arrivalLane="KBJ_to_CMB_002_2" arrivalPos="146.55" arrivalPosLat="-0.45" arrivalSpeed="13.17" duration="62.00" routeLength="397.15" waitingTime="18.00" waitingCount="2" stopTime="0.00" timeLoss="33.47" rerouteNo="0" devices="tripinfo_0_41" vType="Car" speedFactor="0.90" vaporized=""/>
    <tripinfo id="0_13" depart="24.00" departLane="CMB_to_KBJ_003_2" departPos="2.10" departPosLat="0.00" departSpeed="0.00" departDelay="0.46" arrival="171.00" arrivalLane="30093400_1" arrivalPos="127.33" arrivalPosLat="-0.75" arrivalSpeed="6.03" duration="147.00" routeLength="437.99" waitingTime="96.00" waitingCount="1" stopTime="0.00" timeLoss="109.12" rerouteNo="0" devices="tripinfo_0_13" vType="Motor_Cycle" speedFactor="0.92" vaporized=""/>
    <tripinfo id="0_55" depart="138.00" departLane="MRT_to_KB_001.37_4" departPos="4.30" departPosLat="0.00" departSpeed="0.00" departDelay="0.52" arrival="171.00" arrivalLane="KBJ_to_CMB_002_3" arrivalPos="146.55" arrivalPosLat="-0.60" arrivalSpeed="15.78" duration="33.00" routeLength="297.79" waitingTime="0.00" waitingCount="0" stopTime="0.00" timeLoss="13.71" rerouteNo="0" devices="tripinfo_0_55" vType="Car" speedFactor="1.00" vaporized=""/>
    <tripinfo id="0_48" depart="117.00" departLane="MRT_to_KB_001_2" departPos="4.30" departPosLat="0.00" departSpeed="0.00" departDelay="0.55" arrival="172.00" arrivalLane="KBJ_to_CMB_002_2" arrivalPos="146.55" arrivalPosLat="-0.45" arrivalSpeed="12.73" duration="55.00" routeLength="346.58" waitingTime="12.00" waitingCount="2" stopTime="0.00" timeLoss="27.15" rerouteNo="0" devices="tripinfo_0_48" vType="Car" speedFactor="0.81" vaporized=""/>
    <tripinfo id="0_60" depart="148.00" departLane="MRT_to_KB_001.37_4" departPos="4.30" departPosLat="0.00" departSpeed="0.00" departDelay="0.24" arrival="172.00" arrivalLane="KBJ_to_CMB_002_3" arrivalPos="146.55" arrivalPosLat="-0.20" arrivalSpeed="15.38" duration="24.00" routeLength="297.79" waitingTime="0.00" waitingCount="0" stopTime="0.00" timeLoss="4.72" rerouteNo="0" devices="tripinfo_0_60" vType="Car" speedFactor="0.98" vaporized=""/>
    <tripinfo id="0_52" depart="129.00" departLane="MRT_to_KB_001_2" departPos="4.30" departPosLat="0.00" departSpeed="0.00" departDelay="0.54" arrival="173.00" arrivalLane="KBJ_to_CMB_002_2" arrivalPos="146.55" arrivalPosLat="0.45" arrivalSpeed="14.48" duration="44.00" routeLength="346.58" waitingTime="3.00" waitingCount="1" stopTime="0.00" timeLoss="19.57" rerouteNo="0" devices="tripinfo_0_52" vType="Car" speedFactor="0.91" vaporized=""/>
    <tripinfo id="0_64" depart="154.00" departLane="MRT_to_KB_003_1" departPos="2.10" departPosLat="0.00" departSpeed="0.00" departDelay="0.60" arrival="174.00" arrivalLane="KBJ_to_CMB_001_2" arrivalPos="57.78" arrivalPosLat="0.00" arrivalSpeed="17.77" duration="20.00" routeLength="234.19" waitingTime="0.00" waitingCount="0" stopTime="0.00" timeLoss="4.64" rerouteNo="0" devices="tripinfo_0_64" vType="Motor_Cycle" speedFactor="1.08" vaporized=""/>
    <tripinfo id="0_49" depart="121.00" departLane="MRT_to_KB_001_2" departPos="2.65" departPosLat="0.00" departSpeed="0.00" departDelay="1.45" arrival="175.00" arrivalLane="KBJ_to_CMB_002_2" arrivalPos="146.55" arrivalPosLat="-0.25" arrivalSpeed="14.25" duration="54.00" routeLength="348.23" waitingTime="9.00" waitingCount="2" stopTime="0.00" timeLoss="28.06" rerouteNo="0" devices="tripinfo_0_49" vType="3_Wheeler" speedFactor="0.87" vaporized=""/>
    <tripinfo id="0_51" depart="126.00" departLane="MRT_to_KB_003_1" departPos="2.65" departPosLat="0.00" departSpeed="0.00" departDelay="0.12" arrival="175.00" arrivalLane="KBJ_to_CMB_002_3" arrivalPos="146.55" arrivalPosLat="-0.90" arrivalSpeed="16.22" duration="49.00" routeLength="398.80" waitingTime="1.00" waitingCount="1" stopTime="0.00" timeLoss="23.48" rerouteNo="0" devices="tripinfo_0_51" vType="3_Wheeler" speedFactor="1.03" vaporized=""/>
    <tripinfo id="0_23" depart="51.00" departLane="CMB_to_KBJ_001_2" departPos="2.65" departPosLat="0.00" departSpeed="0.00" departDelay="0.15" arrival="176.00" arrivalLane="30093400_1" arrivalPos="127.33" arrivalPosLat="-0.05" arrivalSpeed="7.99" duration="125.00" routeLength="243.71" waitingTime="83.00" waitingCount="1" stopTime="0.00" timeLoss="101.39" rerouteNo="0" devices="tripinfo_0_23" vType="3_Wheeler" speedFactor="1.05" vaporized=""/>
    <tripinfo id="0_65" depart="155.00" departLane="CMB_to_KBJ_001_2" departPos="2.65" departPosLat="0.00" departSpeed="0.00" departDelay="0.11" arrival="176.00" arrivalLane="KB_to_MRT_002_2" arrivalPos="130.27" arrivalPosLat="-0.20" arrivalSpeed="15.93" duration="21.00" routeLength="251.49" waitingTime="0.00" waitingCount="0" stopTime="0.00" timeLoss="5.86" rerouteNo="0" devices="tripinfo_0_65" vType="3_Wheeler" speedFactor="1.05" vaporized=""/>
    <tripinfo id="0_56" depart="140.00" departLane="MRT_to_KB_003_1" departPos="4.30" departPosLat="0.00" departSpeed="0.00" departDelay="0.32" arrival="177.00" arrivalLane="KBJ_to_CMB_002_3" arrivalPos="146.55" arrivalPosLat="0.40" arrivalSpeed="15.61" duration="37.00" routeLength="397.15" waitingTime="0.00" waitingCount="0" stopTime="0.00" timeLoss="9.16" rerouteNo="0" devices="tripinfo_0_56" vType="Car" speedFactor="0.94" vaporized=""/>
    <tripinfo id="0_59" depart="148.00" departLane="MRT_to_KB_001.37_2" departPos="2.65" departPosLat="0.00" departSpeed="0.00" departDelay="0.52" arrival="177.00" arrivalLane="KBJ_to_CMB_002_2" arrivalPos="146.55" arrivalPosLat="0.25" arrivalSpeed="15.57" duration="29.00" routeLength="299.44" waitingTime="0.00" waitingCount="0" stopTime="0.00" timeLoss="8.91" rerouteNo="0" devices="tripinfo_0_59" vType="3_Wheeler" speedFactor="0.96" vaporized=""/>
    <tripinfo id="0_30" depart="76.00" departLane="CMB_to_KBJ_003_2" departPos="4.30" departPosLat="0.00" departSpeed="0.00" departDelay="0.93" arrival="178.00" arrivalLane="30093400_1" arrivalPos="127.33" arrivalPosLat="-0.55" arrivalSpeed="8.08" duration="102.00" routeLength="435.79" waitingTime="48.00" waitingCount="1" stopTime="0.00" timeLoss="67.34" rerouteNo="0" devices="tripinfo_0_30" vType="Car" speedFactor="1.03" vaporized=""/>
    <tripinfo id="0_57" depart="143.00" departLane="MRT_to_KB_003_2" departPos="2.65" departPosLat="0.00" departSpeed="0.00" departDelay="0.96" arrival="178.00" arrivalLane="KBJ_to_CMB_002_2" arrivalPos="146.55" arrivalPosLat="0.45" arrivalSpeed="16.51" duration="35.00" routeLength="398.80" waitingTime="0.00" waitingCount="0" stopTime="0.00" timeLoss="9.62" rerouteNo="0" devices="tripinfo_0_57" vType="3_Wheeler" speedFactor="1.08" vaporized=""/>
    <tripinfo id="0_69" depart="164.00" departLane="MRT_to_KB_001.37_4" departPos="2.10" departPosLat="0.00" departSpeed="0.00" departDelay="1.81" arrival="178.00" arrivalLane="KBJ_to_CMB_001_4" arrivalPos="57.78" arrivalPosLat="0.00" arrivalSpeed="16.24" duration="14.00" routeLength="134.83" waitingTime="0.00" waitingCount="0" stopTime="0.00" timeLoss="4.21" rerouteNo="0" devices="tripinfo_0_69" vType="Motor_Cycle" speedFactor="0.99" vaporized=""/>
    <tripinfo id="0_70" depart="165.00" departLane="MRT_to_KB_001.37_3" departPos="2.10" departPosLat="0.00" departSpeed="0.00" departDelay="2.21" arrival="178.00" arrivalLane="KBJ_to_CMB_001_3" arrivalPos="57.78" arrivalPosLat="0.00" arrivalSpeed="14.68" duration="13.00" routeLength="134.83" waitingTime="0.00" waitingCount="0" stopTime="0.00" timeLoss="3.40" rerouteNo="0" devices="tripinfo_0_70" vType="Motor_Cycle" speedFactor="0.96" vaporized=""/>
    <tripinfo id="0_63" depart="151.00" departLane="MRT_to_KB_001_2" departPos="4.30" departPosLat="0.00" departSpeed="0.00" departDelay="0.06" arrival="180.00" arrivalLane="KBJ_to_CMB_002_2" arrivalPos="146.55" arrivalPosLat="-0.45" arrivalSpeed="16.52" duration="29.00" routeLength="346.58" waitingTime="0.00" waitingCount="0" stopTime="0.00" timeLoss="6.45" rerouteNo="0" devices="tripinfo_0_63" vType="Car" speedFactor="1.01" vaporized=""/>
    <tripinfo id="0_66" depart="156.00" departLane="MRT_to_KB_001_2" departPos="2.10" departPosLat="0.00" departSpeed="0.00" departDelay="0.50" arrival="181.00" arrivalLane="KBJ_to_CMB_002_2" arrivalPos="146.55" arrivalPosLat="-1.05" arrivalSpeed="16.30" duration="25.00" routeLength="348.78" waitingTime="0.00" waitingCount="0" stopTime="0.00" timeLoss="4.46" rerouteNo="0" devices="tripinfo_0_66" vType="Motor_Cycle" speedFactor="1.08" vaporized=""/>