<?xml version="1.0" encoding="UTF-8"?>

<!-- generated on 2025-07-30 21:34:41 by Eclipse SUMO GUI Version 1.24.0
<sumoConfiguration xmlns:xsi="http://www.w3.org/2001/XMLSchema-instance" xsi:noNamespaceSchemaLocation="http://sumo.dlr.de/xsd/sumoConfiguration.xsd">

    <input>
        <net-file value="network/katubedda_junction_network.net.xml"/>
        <route-files value="demand/calibrated_demand_warmup.rou.xml,                             demand/calibrated_demand_6am_7am.rou.xml,                             demand/bus_demand.rou.xml"/>
        <additional-files value="additionals/bus/bus_stops.add.xml,                                 additionals/lane_detectors_dynamic.add.xml,                                 additionals/vtype_dist_base.xml"/>
    </input>

    <output>
        <queue-output value="outputs/dynamic_DQL_vehicle_data/224178.dynamic_DQL_vehicle_data.xml"/>
        <queue-output.period value="300"/>
        <tripinfo-output value="outputs/dynamic_DQL_vehicle_data/224178.tripinfo_dynamic_DQL_vehicle_data.xml"/>
    </output>

    <processing>
        <lateral-resolution value="0.8"/>
    </processing>

    <traci_server>
        <remote-port value="56939"/>
    </traci_server>

    <random_number>
        <seed value="224178"/>
    </random_number>

    <gui_only>
        <gui-settings-file value="additionals/satelite_image_bg.xml"/>
    </gui_only>

</sumoConfiguration>
-->

<tripinfos xmlns:xsi="http://www.w3.org/2001/XMLSchema-instance" xsi:noNamespaceSchemaLocation="http://sumo.dlr.de/xsd/tripinfo_file.xsd">
</tripinfos>
