<?xml version="1.0" encoding="UTF-8"?>

<!-- generated on 2025-08-05 09:23:23 by Eclipse SUMO sumo Version 1.24.0
<sumoConfiguration xmlns:xsi="http://www.w3.org/2001/XMLSchema-instance" xsi:noNamespaceSchemaLocation="http://sumo.dlr.de/xsd/sumoConfiguration.xsd">

    <input>
        <net-file value="network/katubedda_junction_network.net.xml"/>
        <route-files value="demand/calibrated_demand_warmup.rou.xml,                             demand/calibrated_demand_6am_7am.rou.xml,                             demand/bus_demand.rou.xml"/>
        <additional-files value="additionals/bus/bus_stops.add.xml,                                 additionals/lane_detectors_dynamic.add.xml,                                 additionals/vtype_dist_base.xml"/>
    </input>

    <output>
        <queue-output value="outputs/dynamic_DQL_vehicle_data/64607.dynamic_DQL_vehicle_data.xml"/>
        <queue-output.period value="300"/>
        <tripinfo-output value="outputs/dynamic_DQL_vehicle_data/64607.tripinfo_dynamic_DQL_vehicle_data.xml"/>
    </output>

    <processing>
        <lateral-resolution value="1.2"/>
        <collision.action value="none"/>
    </processing>

    <traci_server>
        <remote-port value="49394"/>
    </traci_server>

    <random_number>
        <seed value="64607"/>
    </random_number>

    <gui_only>
        <gui-settings-file value="additionals/satelite_image_bg.xml"/>
    </gui_only>

</sumoConfiguration>
-->

<tripinfos xmlns:xsi="http://www.w3.org/2001/XMLSchema-instance" xsi:noNamespaceSchemaLocation="http://sumo.dlr.de/xsd/tripinfo_file.xsd">
    <tripinfo id="0_1" depart="5.00" departLane="MRT_to_KB_001_2" departPos="4.30" departPosLat="0.00" departSpeed="0.00" departDelay="0.36" arrival="31.00" arrivalLane="KBJ_to_CMB_002_1" arrivalPos="146.55" arrivalPosLat="0.50" arrivalSpeed="16.64" duration="26.00" routeLength="346.58" waitingTime="0.00" waitingCount="0" stopTime="0.00" timeLoss="3.99" rerouteNo="0" devices="tripinfo_0_1" vType="Car" speedFactor="1.03" vaporized=""/>
    <tripinfo id="0_3" depart="8.00" departLane="CMB_to_KBJ_003_2" departPos="2.65" departPosLat="0.00" departSpeed="0.00" departDelay="0.39" arrival="33.00" arrivalLane="KB_to_MRT_001_1" arrivalPos="44.82" arrivalPosLat="0.00" arrivalSpeed="16.16" duration="25.00" routeLength="301.17" waitingTime="0.00" waitingCount="0" stopTime="0.00" timeLoss="5.98" rerouteNo="0" devices="tripinfo_0_3" vType="3_Wheeler" speedFactor="1.02" vaporized=""/>
    <tripinfo id="0_8" depart="13.00" departLane="MRT_to_KB_003_1" departPos="5.40" departPosLat="0.00" departSpeed="0.00" departDelay="0.78" arrival="35.00" arrivalLane="KBJ_to_CMB_001_2" arrivalPos="57.78" arrivalPosLat="-0.70" arrivalSpeed="14.92" duration="22.00" routeLength="230.89" waitingTime="0.00" waitingCount="0" stopTime="0.00" timeLoss="4.18" rerouteNo="0" devices="tripinfo_0_8" vType="Van" speedFactor="0.91" vaporized=""/>
    <tripinfo id="0_10" depart="14.00" departLane="MRT_to_KB_003_2" departPos="4.30" departPosLat="0.00" departSpeed="0.00" departDelay="0.20" arrival="35.00" arrivalLane="KBJ_to_CMB_001_3" arrivalPos="57.78" arrivalPosLat="-0.45" arrivalSpeed="17.24" duration="21.00" routeLength="231.99" waitingTime="0.00" waitingCount="0" stopTime="0.00" timeLoss="5.80" rerouteNo="0" devices="tripinfo_0_10" vType="Car" speedFactor="1.09" vaporized=""/>
    <tripinfo id="0_5" depart="10.00" departLane="MRT_to_KB_001_2" departPos="2.10" departPosLat="0.00" departSpeed="0.00" departDelay="0.85" arrival="36.00" arrivalLane="KBJ_to_CMB_002_1" arrivalPos="146.55" arrivalPosLat="0.00" arrivalSpeed="16.76" duration="26.00" routeLength="348.78" waitingTime="0.00" waitingCount="0" stopTime="0.00" timeLoss="3.63" rerouteNo="0" devices="tripinfo_0_5" vType="Motor_Cycle" speedFactor="1.01" vaporized=""/>
    <tripinfo id="0_6" depart="11.00" departLane="MRT_to_KB_001_3" departPos="4.30" departPosLat="0.00" departSpeed="0.00" departDelay="0.22" arrival="36.00" arrivalLane="KBJ_to_CMB_002_2" arrivalPos="146.55" arrivalPosLat="-0.45" arrivalSpeed="16.54" duration="25.00" routeLength="346.58" waitingTime="0.00" waitingCount="0" stopTime="0.00" timeLoss="3.72" rerouteNo="0" devices="tripinfo_0_6" vType="Car" speedFactor="1.04" vaporized=""/>
    <tripinfo id="0_7" depart="12.00" departLane="CMB_to_KBJ_002_2" departPos="4.30" departPosLat="0.00" departSpeed="0.00" departDelay="0.80" arrival="37.00" arrivalLane="KB_to_MRT_002_2" arrivalPos="130.27" arrivalPosLat="-1.45" arrivalSpeed="18.23" duration="25.00" routeLength="292.96" waitingTime="0.00" waitingCount="0" stopTime="0.00" timeLoss="8.89" rerouteNo="0" devices="tripinfo_0_7" vType="Car" speedFactor="1.12" vaporized=""/>
    <tripinfo id="0_11" depart="16.00" departLane="MRT_to_KB_003_1" departPos="2.10" departPosLat="0.00" departSpeed="0.00" departDelay="0.50" arrival="37.00" arrivalLane="KBJ_to_CMB_001_2" arrivalPos="57.78" arrivalPosLat="1.00" arrivalSpeed="16.29" duration="21.00" routeLength="234.19" waitingTime="0.00" waitingCount="0" stopTime="0.00" timeLoss="6.14" rerouteNo="0" devices="tripinfo_0_11" vType="Motor_Cycle" speedFactor="1.08" vaporized=""/>
    <tripinfo id="0_4" depart="8.00" departLane="MRT_to_KB_003_2" departPos="2.10" departPosLat="0.00" departSpeed="0.00" departDelay="0.05" arrival="39.00" arrivalLane="KBJ_to_CMB_002_2" arrivalPos="146.55" arrivalPosLat="1.05" arrivalSpeed="15.55" duration="31.00" routeLength="399.35" waitingTime="0.00" waitingCount="0" stopTime="0.00" timeLoss="4.74" rerouteNo="0" devices="tripinfo_0_4" vType="Motor_Cycle" speedFactor="1.00" vaporized=""/>
    <tripinfo id="0_0" depart="5.00" departLane="MRT_to_KB_003_1" departPos="2.10" departPosLat="0.00" departSpeed="0.00" departDelay="0.68" arrival="40.00" arrivalLane="KBJ_to_CMB_002_1" arrivalPos="146.55" arrivalPosLat="1.50" arrivalSpeed="15.86" duration="35.00" routeLength="399.35" waitingTime="0.00" waitingCount="0" stopTime="0.00" timeLoss="7.68" rerouteNo="0" devices="tripinfo_0_0" vType="Motor_Cycle" speedFactor="0.96" vaporized=""/>
    <tripinfo id="0_9" depart="14.00" departLane="CMB_to_KBJ_001_2" departPos="4.30" departPosLat="0.00" departSpeed="0.00" departDelay="0.41" arrival="43.00" arrivalLane="30093400_1" arrivalPos="127.33" arrivalPosLat="-0.55" arrivalSpeed="7.71" duration="29.00" routeLength="242.06" waitingTime="0.00" waitingCount="0" stopTime="0.00" timeLoss="5.92" rerouteNo="0" devices="tripinfo_0_9" vType="Car" speedFactor="1.01" vaporized=""/>
    <tripinfo id="0_17" depart="30.00" departLane="MRT_to_KB_003_1" departPos="2.10" departPosLat="0.00" departSpeed="0.00" departDelay="0.65" arrival="52.00" arrivalLane="KBJ_to_CMB_001_2" arrivalPos="57.78" arrivalPosLat="1.00" arrivalSpeed="13.63" duration="22.00" routeLength="234.19" waitingTime="0.00" waitingCount="0" stopTime="0.00" timeLoss="3.59" rerouteNo="0" devices="tripinfo_0_17" vType="Motor_Cycle" speedFactor="0.90" vaporized=""/>
    <tripinfo id="0_16" depart="30.00" departLane="MRT_to_KB_001.37_3" departPos="2.10" departPosLat="0.00" departSpeed="0.00" departDelay="0.85" arrival="53.00" arrivalLane="KBJ_to_CMB_002_2" arrivalPos="146.55" arrivalPosLat="0.00" arrivalSpeed="16.04" duration="23.00" routeLength="299.99" waitingTime="0.00" waitingCount="0" stopTime="0.00" timeLoss="3.63" rerouteNo="0" devices="tripinfo_0_16" vType="Motor_Cycle" speedFactor="0.99" vaporized=""/>
    <tripinfo id="0_12" depart="22.00" departLane="MRT_to_KB_003_1" departPos="4.30" departPosLat="0.00" departSpeed="0.00" departDelay="0.83" arrival="56.00" arrivalLane="KBJ_to_CMB_002_2" arrivalPos="146.55" arrivalPosLat="-0.45" arrivalSpeed="15.58" duration="34.00" routeLength="397.15" waitingTime="0.00" waitingCount="0" stopTime="0.00" timeLoss="6.94" rerouteNo="0" devices="tripinfo_0_12" vType="Car" speedFactor="0.97" vaporized=""/>
    <tripinfo id="0_14" depart="26.00" departLane="MRT_to_KB_001_3" departPos="4.30" departPosLat="0.00" departSpeed="0.00" departDelay="0.40" arrival="56.00" arrivalLane="KBJ_to_CMB_002_1" arrivalPos="146.55" arrivalPosLat="-0.70" arrivalSpeed="14.16" duration="30.00" routeLength="346.58" waitingTime="0.00" waitingCount="0" stopTime="0.00" timeLoss="4.85" rerouteNo="0" devices="tripinfo_0_14" vType="Car" speedFactor="0.88" vaporized=""/>
    <tripinfo id="0_15" depart="30.00" departLane="MRT_to_KB_001_2" departPos="2.65" departPosLat="0.00" departSpeed="0.00" departDelay="1.81" arrival="58.00" arrivalLane="KBJ_to_CMB_002_2" arrivalPos="146.55" arrivalPosLat="-0.25" arrivalSpeed="16.21" duration="28.00" routeLength="348.23" waitingTime="0.00" waitingCount="0" stopTime="0.00" timeLoss="7.02" rerouteNo="0" devices="tripinfo_0_15" vType="3_Wheeler" speedFactor="1.32" vaporized=""/>
    <tripinfo id="0_18" depart="35.00" departLane="MRT_to_KB_001.37_2" departPos="2.10" departPosLat="0.00" departSpeed="0.00" departDelay="0.18" arrival="60.00" arrivalLane="KBJ_to_CMB_002_1" arrivalPos="146.55" arrivalPosLat="-0.80" arrivalSpeed="14.37" duration="25.00" routeLength="299.99" waitingTime="0.00" waitingCount="0" stopTime="0.00" timeLoss="3.56" rerouteNo="0" devices="tripinfo_0_18" vType="Motor_Cycle" speedFactor="0.87" vaporized=""/>
    <tripinfo id="0_20" depart="43.00" departLane="MRT_to_KB_003_2" departPos="2.65" departPosLat="0.00" departSpeed="0.00" departDelay="0.97" arrival="64.00" arrivalLane="KBJ_to_CMB_001_3" arrivalPos="57.78" arrivalPosLat="0.45" arrivalSpeed="15.12" duration="21.00" routeLength="233.64" waitingTime="0.00" waitingCount="0" stopTime="0.00" timeLoss="3.97" rerouteNo="0" devices="tripinfo_0_20" vType="3_Wheeler" speedFactor="0.93" vaporized=""/>
    <tripinfo id="0_25" depart="52.00" departLane="MRT_to_KB_001.37_2" departPos="4.30" departPosLat="0.00" departSpeed="0.00" departDelay="0.01" arrival="65.00" arrivalLane="KBJ_to_CMB_001_2" arrivalPos="57.78" arrivalPosLat="0.50" arrivalSpeed="14.07" duration="13.00" routeLength="132.63" waitingTime="0.00" waitingCount="0" stopTime="0.00" timeLoss="2.96" rerouteNo="0" devices="tripinfo_0_25" vType="Car" speedFactor="0.90" vaporized=""/>
    <tripinfo id="0_26" depart="54.00" departLane="MRT_to_KB_001.37_4" departPos="2.10" departPosLat="0.00" departSpeed="0.00" departDelay="0.87" arrival="67.00" arrivalLane="KBJ_to_CMB_001_4" arrivalPos="57.78" arrivalPosLat="0.00" arrivalSpeed="13.49" duration="13.00" routeLength="134.83" waitingTime="0.00" waitingCount="0" stopTime="0.00" timeLoss="2.91" rerouteNo="0" devices="tripinfo_0_26" vType="Motor_Cycle" speedFactor="0.90" vaporized=""/>
    <tripinfo id="0_19" depart="39.00" departLane="MRT_to_KB_003_1" departPos="2.10" departPosLat="0.00" departSpeed="0.00" departDelay="0.88" arrival="71.00" arrivalLane="KBJ_to_CMB_002_2" arrivalPos="146.55" arrivalPosLat="-0.25" arrivalSpeed="14.69" duration="32.00" routeLength="399.35" waitingTime="0.00" waitingCount="0" stopTime="0.00" timeLoss="4.33" rerouteNo="0" devices="tripinfo_0_19" vType="Motor_Cycle" speedFactor="0.96" vaporized=""/>
    <tripinfo id="0_2" depart="8.00" departLane="MRT_to_KB_001_4" departPos="2.10" departPosLat="0.00" departSpeed="0.00" departDelay="0.71" arrival="82.00" arrivalLane="KBJ_to_P_2" arrivalPos="128.65" arrivalPosLat="0.00" arrivalSpeed="15.61" duration="74.00" routeLength="249.81" waitingTime="47.00" waitingCount="1" stopTime="0.00" timeLoss="58.11" rerouteNo="0" devices="tripinfo_0_2" vType="Motor_Cycle" speedFactor="1.19" vaporized=""/>
    <tripinfo id="0_24" depart="52.00" departLane="P_to_KBJ_1" departPos="4.30" departPosLat="0.00" departSpeed="0.00" departDelay="0.04" arrival="86.00" arrivalLane="KB_to_MRT_002_2" arrivalPos="130.27" arrivalPosLat="-0.45" arrivalSpeed="15.93" duration="34.00" routeLength="335.94" waitingTime="0.00" waitingCount="0" stopTime="0.00" timeLoss="10.35" rerouteNo="0" devices="tripinfo_0_24" vType="Car" speedFactor="0.99" vaporized=""/>
    <tripinfo id="0_21" depart="47.00" departLane="MRT_to_KB_003_3" departPos="6.35" departPosLat="0.00" departSpeed="0.00" departDelay="0.07" arrival="87.00" arrivalLane="KBJ_to_P_2" arrivalPos="128.65" arrivalPosLat="-0.57" arrivalSpeed="13.46" duration="40.00" routeLength="296.13" waitingTime="5.00" waitingCount="1" stopTime="0.00" timeLoss="17.24" rerouteNo="0" devices="tripinfo_0_21" vType="Goods_Vehicle" speedFactor="0.97" vaporized=""/>
    <tripinfo id="0_36" depart="89.00" departLane="MRT_to_KB_001_4" departPos="2.10" departPosLat="0.00" departSpeed="0.00" departDelay="0.67" arrival="112.00" arrivalLane="KBJ_to_P_2" arrivalPos="128.65" arrivalPosLat="0.00" arrivalSpeed="14.70" duration="23.00" routeLength="249.81" waitingTime="0.00" waitingCount="0" stopTime="0.00" timeLoss="6.25" rerouteNo="0" devices="tripinfo_0_36" vType="Motor_Cycle" speedFactor="1.09" vaporized=""/>
    <tripinfo id="0_22" depart="49.00" departLane="P_to_KBJ_2" departPos="2.10" departPosLat="0.00" departSpeed="0.00" departDelay="0.12" arrival="126.00" arrivalLane="KBJ_to_CMB_002_3" arrivalPos="146.55" arrivalPosLat="0.00" arrivalSpeed="17.41" duration="77.00" routeLength="391.01" waitingTime="43.00" waitingCount="1" stopTime="0.00" timeLoss="53.52" rerouteNo="0" devices="tripinfo_0_22" vType="Motor_Cycle" speedFactor="1.13" vaporized=""/>
    <tripinfo id="0_35" depart="89.00" departLane="MRT_to_KB_003_1" departPos="2.10" departPosLat="0.00" departSpeed="0.00" departDelay="0.92" arrival="147.00" arrivalLane="KBJ_to_CMB_001_2" arrivalPos="57.78" arrivalPosLat="1.20" arrivalSpeed="19.54" duration="58.00" routeLength="234.19" waitingTime="32.00" waitingCount="1" stopTime="0.00" timeLoss="43.54" rerouteNo="0" devices="tripinfo_0_35" vType="Motor_Cycle" speedFactor="1.18" vaporized=""/>
    <tripinfo id="0_38" depart="97.00" departLane="MRT_to_KB_003_2" departPos="4.30" departPosLat="0.00" departSpeed="0.00" departDelay="0.11" arrival="151.00" arrivalLane="KBJ_to_CMB_001_3" arrivalPos="57.78" arrivalPosLat="-0.45" arrivalSpeed="12.35" duration="54.00" routeLength="231.99" waitingTime="28.00" waitingCount="1" stopTime="0.00" timeLoss="39.92" rerouteNo="0" devices="tripinfo_0_38" vType="Car" speedFactor="1.13" vaporized=""/>
    <tripinfo id="0_39" depart="102.00" departLane="CMB_to_KBJ_001_4" departPos="2.65" departPosLat="0.00" departSpeed="0.00" departDelay="0.60" arrival="156.00" arrivalLane="KB_to_MRT_002_3" arrivalPos="130.27" arrivalPosLat="0.05" arrivalSpeed="16.28" duration="54.00" routeLength="251.49" waitingTime="27.00" waitingCount="1" stopTime="0.00" timeLoss="38.69" rerouteNo="0" devices="tripinfo_0_39" vType="3_Wheeler" speedFactor="0.99" vaporized=""/>
    <tripinfo id="0_27" depart="59.00" departLane="MRT_to_KB_001_2" departPos="4.30" departPosLat="0.00" departSpeed="0.00" departDelay="0.43" arrival="157.00" arrivalLane="KBJ_to_CMB_002_2" arrivalPos="146.55" arrivalPosLat="-0.45" arrivalSpeed="16.42" duration="98.00" routeLength="346.58" waitingTime="66.00" waitingCount="1" stopTime="0.00" timeLoss="76.18" rerouteNo="0" devices="tripinfo_0_27" vType="Car" speedFactor="1.03" vaporized=""/>
    <tripinfo id="0_29" depart="75.00" departLane="MRT_to_KB_001.37_4" departPos="4.30" departPosLat="0.00" departSpeed="0.00" departDelay="0.68" arrival="157.00" arrivalLane="KBJ_to_CMB_002_3" arrivalPos="146.55" arrivalPosLat="-0.60" arrivalSpeed="16.99" duration="82.00" routeLength="297.79" waitingTime="54.00" waitingCount="1" stopTime="0.00" timeLoss="63.73" rerouteNo="0" devices="tripinfo_0_29" vType="Car" speedFactor="1.06" vaporized=""/>
    <tripinfo id="0_45" depart="113.00" departLane="MRT_to_KB_003_2" departPos="2.65" departPosLat="0.00" departSpeed="0.00" departDelay="0.33" arrival="157.00" arrivalLane="KBJ_to_CMB_001_2" arrivalPos="57.78" arrivalPosLat="-0.00" arrivalSpeed="14.35" duration="44.00" routeLength="233.64" waitingTime="11.00" waitingCount="2" stopTime="0.00" timeLoss="26.05" rerouteNo="0" devices="tripinfo_0_45" vType="3_Wheeler" speedFactor="0.91" vaporized=""/>
    <tripinfo id="0_46" depart="116.00" departLane="MRT_to_KB_001.37_2" departPos="2.10" departPosLat="0.00" departSpeed="0.00" departDelay="0.47" arrival="160.00" arrivalLane="KBJ_to_CMB_002_2" arrivalPos="146.55" arrivalPosLat="-1.05" arrivalSpeed="15.06" duration="44.00" routeLength="299.99" waitingTime="14.00" waitingCount="1" stopTime="0.00" timeLoss="23.83" rerouteNo="0" devices="tripinfo_0_46" vType="Motor_Cycle" speedFactor="0.95" vaporized=""/>
    <tripinfo id="0_58" depart="143.00" departLane="MRT_to_KB_001.37_2" departPos="4.30" departPosLat="0.00" departSpeed="0.00" departDelay="0.75" arrival="160.00" arrivalLane="KBJ_to_CMB_001_2" arrivalPos="57.78" arrivalPosLat="0.50" arrivalSpeed="18.21" duration="17.00" routeLength="132.63" waitingTime="0.00" waitingCount="0" stopTime="0.00" timeLoss="8.40" rerouteNo="0" devices="tripinfo_0_58" vType="Car" speedFactor="1.12" vaporized=""/>
    <tripinfo id="0_33" depart="85.00" departLane="MRT_to_KB_001.37_2" departPos="5.40" departPosLat="0.00" departSpeed="0.00" departDelay="0.77" arrival="162.00" arrivalLane="KBJ_to_CMB_002_3" arrivalPos="146.55" arrivalPosLat="-0.60" arrivalSpeed="14.26" duration="77.00" routeLength="296.69" waitingTime="46.00" waitingCount="1" stopTime="0.00" timeLoss="54.54" rerouteNo="0" devices="tripinfo_0_33" vType="Van" speedFactor="0.86" vaporized=""/>
    <tripinfo id="0_32" depart="84.00" departLane="MRT_to_KB_001_2" departPos="5.40" departPosLat="0.00" departSpeed="0.00" departDelay="0.02" arrival="163.00" arrivalLane="KBJ_to_CMB_002_3" arrivalPos="146.55" arrivalPosLat="-0.60" arrivalSpeed="15.13" duration="79.00" routeLength="345.48" waitingTime="43.00" waitingCount="1" stopTime="0.00" timeLoss="54.87" rerouteNo="0" devices="tripinfo_0_32" vType="Van" speedFactor="0.92" vaporized=""/>
    <tripinfo id="0_13" depart="24.00" departLane="CMB_to_KBJ_003_2" departPos="2.10" departPosLat="0.00" departSpeed="0.00" departDelay="0.46" arrival="165.00" arrivalLane="30093400_1" arrivalPos="127.33" arrivalPosLat="-0.75" arrivalSpeed="8.20" duration="141.00" routeLength="437.99" waitingTime="93.00" waitingCount="1" stopTime="0.00" timeLoss="106.24" rerouteNo="0" devices="tripinfo_0_13" vType="Motor_Cycle" speedFactor="1.02" vaporized=""/>
    <tripinfo id="0_28" depart="66.00" departLane="MRT_to_KB_001.37_3" departPos="2.65" departPosLat="0.00" departSpeed="0.00" departDelay="1.25" arrival="165.00" arrivalLane="KBJ_to_CMB_002_2" arrivalPos="146.55" arrivalPosLat="-1.25" arrivalSpeed="10.79" duration="99.00" routeLength="299.44" waitingTime="63.00" waitingCount="1" stopTime="0.00" timeLoss="71.17" rerouteNo="0" devices="tripinfo_0_28" vType="3_Wheeler" speedFactor="0.68" vaporized=""/>
    <tripinfo id="0_62" depart="151.00" departLane="MRT_to_KB_001.37_2" departPos="2.65" departPosLat="0.00" departSpeed="0.00" departDelay="0.21" arrival="165.00" arrivalLane="KBJ_to_CMB_001_2" arrivalPos="57.78" arrivalPosLat="-0.00" arrivalSpeed="16.55" duration="14.00" routeLength="134.28" waitingTime="0.00" waitingCount="0" stopTime="0.00" timeLoss="4.65" rerouteNo="0" devices="tripinfo_0_62" vType="3_Wheeler" speedFactor="1.01" vaporized=""/>
    <tripinfo id="0_30" depart="76.00" departLane="CMB_to_KBJ_003_2" departPos="2.10" departPosLat="0.00" departSpeed="0.00" departDelay="0.93" arrival="166.00" arrivalLane="30093400_1" arrivalPos="127.33" arrivalPosLat="1.15" arrivalSpeed="6.98" duration="90.00" routeLength="437.99" waitingTime="40.00" waitingCount="1" stopTime="0.00" timeLoss="55.70" rerouteNo="0" devices="tripinfo_0_30" vType="Motor_Cycle" speedFactor="1.02" vaporized=""/>
    <tripinfo id="0_37" depart="96.00" departLane="MRT_to_KB_003_1" departPos="2.65" departPosLat="0.00" departSpeed="0.00" departDelay="0.92" arrival="167.00" arrivalLane="KBJ_to_CMB_002_3" arrivalPos="146.55" arrivalPosLat="-0.50" arrivalSpeed="15.21" duration="71.00" routeLength="398.80" waitingTime="28.00" waitingCount="1" stopTime="0.00" timeLoss="46.97" rerouteNo="0" devices="tripinfo_0_37" vType="3_Wheeler" speedFactor="1.24" vaporized=""/>
    <tripinfo id="0_48" depart="117.00" departLane="MRT_to_KB_001_2" departPos="2.65" departPosLat="0.00" departSpeed="0.00" departDelay="0.55" arrival="167.00" arrivalLane="KBJ_to_CMB_002_2" arrivalPos="146.55" arrivalPosLat="0.25" arrivalSpeed="13.83" duration="50.00" routeLength="348.23" waitingTime="8.00" waitingCount="1" stopTime="0.00" timeLoss="24.89" rerouteNo="0" devices="tripinfo_0_48" vType="3_Wheeler" speedFactor="0.91" vaporized=""/>
    <tripinfo id="0_34" depart="86.00" departLane="MRT_to_KB_001_3" departPos="4.30" departPosLat="0.00" departSpeed="0.00" departDelay="0.04" arrival="169.00" arrivalLane="KBJ_to_CMB_002_3" arrivalPos="146.55" arrivalPosLat="-0.60" arrivalSpeed="17.41" duration="83.00" routeLength="346.58" waitingTime="42.00" waitingCount="1" stopTime="0.00" timeLoss="62.24" rerouteNo="0" devices="tripinfo_0_34" vType="Car" speedFactor="1.10" vaporized=""/>
    <tripinfo id="0_41" depart="108.00" departLane="MRT_to_KB_003_1" departPos="2.65" departPosLat="0.00" departSpeed="0.00" departDelay="0.15" arrival="170.00" arrivalLane="KBJ_to_CMB_002_3" arrivalPos="146.55" arrivalPosLat="-0.50" arrivalSpeed="15.84" duration="62.00" routeLength="398.80" waitingTime="20.00" waitingCount="1" stopTime="0.00" timeLoss="37.34" rerouteNo="0" devices="tripinfo_0_41" vType="3_Wheeler" speedFactor="1.12" vaporized=""/>
    <tripinfo id="0_49" depart="121.00" departLane="MRT_to_KB_001_2" departPos="2.10" departPosLat="0.00" departSpeed="0.00" departDelay="1.45" arrival="170.00" arrivalLane="KBJ_to_CMB_002_2" arrivalPos="146.55" arrivalPosLat="-1.05" arrivalSpeed="13.85" duration="49.00" routeLength="348.78" waitingTime="8.00" waitingCount="1" stopTime="0.00" timeLoss="26.27" rerouteNo="0" devices="tripinfo_0_49" vType="Motor_Cycle" speedFactor="0.99" vaporized=""/>
    <tripinfo id="0_23" depart="51.00" departLane="CMB_to_KBJ_001_2" departPos="6.35" departPosLat="0.00" departSpeed="0.00" departDelay="0.15" arrival="171.00" arrivalLane="30093400_1" arrivalPos="127.33" arrivalPosLat="-0.42" arrivalSpeed="8.07" duration="120.00" routeLength="240.01" waitingTime="81.00" waitingCount="1" stopTime="0.00" timeLoss="94.97" rerouteNo="0" devices="tripinfo_0_23" vType="Goods_Vehicle" speedFactor="0.98" vaporized=""/>
    <tripinfo id="0_47" depart="116.00" departLane="MRT_to_KB_003_1" departPos="2.65" departPosLat="0.00" departSpeed="0.00" departDelay="0.17" arrival="171.00" arrivalLane="KBJ_to_CMB_002_2" arrivalPos="146.55" arrivalPosLat="0.45" arrivalSpeed="14.42" duration="55.00" routeLength="398.80" waitingTime="6.00" waitingCount="1" stopTime="0.00" timeLoss="30.35" rerouteNo="0" devices="tripinfo_0_47" vType="3_Wheeler" speedFactor="1.14" vaporized=""/>
    <tripinfo id="0_42" depart="109.00" departLane="MRT_to_KB_001.37_4" departPos="4.30" departPosLat="0.00" departSpeed="0.00" departDelay="0.94" arrival="172.00" arrivalLane="KBJ_to_CMB_002_3" arrivalPos="146.55" arrivalPosLat="-0.60" arrivalSpeed="14.24" duration="63.00" routeLength="297.79" waitingTime="27.00" waitingCount="1" stopTime="0.00" timeLoss="41.91" rerouteNo="0" devices="tripinfo_0_42" vType="Car" speedFactor="0.90" vaporized=""/>
    <tripinfo id="0_31" depart="82.00" departLane="CMB_to_KBJ_003_2" departPos="2.65" departPosLat="0.00" departSpeed="0.00" departDelay="0.75" arrival="173.00" arrivalLane="30093400_1" arrivalPos="127.33" arrivalPosLat="0.05" arrivalSpeed="8.33" duration="91.00" routeLength="437.44" waitingTime="37.00" waitingCount="1" stopTime="0.00" timeLoss="57.15" rerouteNo="0" devices="tripinfo_0_31" vType="3_Wheeler" speedFactor="1.10" vaporized=""/>
    <tripinfo id="0_40" depart="108.00" departLane="MRT_to_KB_001.37_2" departPos="4.30" departPosLat="0.00" departSpeed="0.00" departDelay="1.21" arrival="173.00" arrivalLane="KBJ_to_CMB_002_2" arrivalPos="146.55" arrivalPosLat="0.45" arrivalSpeed="16.33" duration="65.00" routeLength="297.79" waitingTime="27.00" waitingCount="1" stopTime="0.00" timeLoss="47.41" rerouteNo="0" devices="tripinfo_0_40" vType="Car" speedFactor="1.10" vaporized=""/>
    <tripinfo id="0_60" depart="148.00" departLane="MRT_to_KB_001.37_4" departPos="2.65" departPosLat="0.00" departSpeed="0.00" departDelay="0.24" arrival="173.00" arrivalLane="KBJ_to_CMB_002_3" arrivalPos="146.55" arrivalPosLat="0.00" arrivalSpeed="15.42" duration="25.00" routeLength="299.44" waitingTime="0.00" waitingCount="0" stopTime="0.00" timeLoss="5.31" rerouteNo="0" devices="tripinfo_0_60" vType="3_Wheeler" speedFactor="0.94" vaporized=""/>
    <tripinfo id="0_64" depart="154.00" departLane="MRT_to_KB_003_1" departPos="4.30" departPosLat="0.00" departSpeed="0.00" departDelay="0.60" arrival="173.00" arrivalLane="KBJ_to_CMB_001_2" arrivalPos="57.78" arrivalPosLat="-0.70" arrivalSpeed="18.17" duration="19.00" routeLength="231.99" waitingTime="0.00" waitingCount="0" stopTime="0.00" timeLoss="4.58" rerouteNo="0" devices="tripinfo_0_64" vType="Car" speedFactor="1.14" vaporized=""/>
    <tripinfo id="0_52" depart="129.00" departLane="MRT_to_KB_001_2" departPos="4.30" departPosLat="0.00" departSpeed="0.00" departDelay="0.54" arrival="174.00" arrivalLane="KBJ_to_CMB_002_2" arrivalPos="146.55" arrivalPosLat="-0.45" arrivalSpeed="16.57" duration="45.00" routeLength="346.58" waitingTime="4.00" waitingCount="1" stopTime="0.00" timeLoss="23.96" rerouteNo="0" devices="tripinfo_0_52" vType="Car" speedFactor="1.06" vaporized=""/>
    <tripinfo id="0_55" depart="138.00" departLane="MRT_to_KB_001.37_2" departPos="2.10" departPosLat="0.00" departSpeed="0.00" departDelay="0.52" arrival="176.00" arrivalLane="KBJ_to_CMB_002_3" arrivalPos="146.55" arrivalPosLat="-1.20" arrivalSpeed="16.35" duration="38.00" routeLength="299.99" waitingTime="0.00" waitingCount="0" stopTime="0.00" timeLoss="18.99" rerouteNo="0" devices="tripinfo_0_55" vType="Motor_Cycle" speedFactor="1.02" vaporized=""/>
    <tripinfo id="0_56" depart="140.00" departLane="MRT_to_KB_003_1" departPos="2.10" departPosLat="0.00" departSpeed="0.00" departDelay="0.32" arrival="176.00" arrivalLane="KBJ_to_CMB_002_2" arrivalPos="146.55" arrivalPosLat="-0.05" arrivalSpeed="15.00" duration="36.00" routeLength="399.35" waitingTime="0.00" waitingCount="0" stopTime="0.00" timeLoss="10.57" rerouteNo="0" devices="tripinfo_0_56" vType="Motor_Cycle" speedFactor="1.02" vaporized=""/>
    <tripinfo id="0_50" depart="123.00" departLane="CMB_to_KBJ_002_2" departPos="2.65" departPosLat="0.00" departSpeed="0.00" departDelay="0.31" arrival="177.00" arrivalLane="30093400_1" arrivalPos="127.33" arrivalPosLat="0.00" arrivalSpeed="7.36" duration="54.00" routeLength="286.83" waitingTime="7.00" waitingCount="1" stopTime="0.00" timeLoss="25.76" rerouteNo="0" devices="tripinfo_0_50" vType="3_Wheeler" speedFactor="0.92" vaporized=""/>
    <tripinfo id="0_65" depart="155.00" departLane="CMB_to_KBJ_001_2" departPos="2.10" departPosLat="0.00" departSpeed="0.00" departDelay="0.11" arrival="177.00" arrivalLane="KB_to_MRT_002_2" arrivalPos="130.27" arrivalPosLat="-0.20" arrivalSpeed="13.76" duration="22.00" routeLength="252.04" waitingTime="0.00" waitingCount="0" stopTime="0.00" timeLoss="4.50" rerouteNo="0" devices="tripinfo_0_65" vType="Motor_Cycle" speedFactor="0.89" vaporized=""/>
    <tripinfo id="0_69" depart="164.00" departLane="MRT_to_KB_001.37_4" departPos="2.10" departPosLat="0.00" departSpeed="0.00" departDelay="1.81" arrival="177.00" arrivalLane="KBJ_to_CMB_001_4" arrivalPos="57.78" arrivalPosLat="0.00" arrivalSpeed="14.53" duration="13.00" routeLength="134.83" waitingTime="0.00" waitingCount="0" stopTime="0.00" timeLoss="2.84" rerouteNo="0" devices="tripinfo_0_69" vType="Motor_Cycle" speedFactor="0.90" vaporized=""/>
    <tripinfo id="0_51" depart="126.00" departLane="MRT_to_KB_003_1" departPos="2.10" departPosLat="0.00" departSpeed="0.00" departDelay="0.12" arrival="178.00" arrivalLane="KBJ_to_CMB_002_2" arrivalPos="146.55" arrivalPosLat="0.95" arrivalSpeed="15.70" duration="52.00" routeLength="399.35" waitingTime="1.00" waitingCount="1" stopTime="0.00" timeLoss="26.05" rerouteNo="0" devices="tripinfo_0_51" vType="Motor_Cycle" speedFactor="1.02" vaporized=""/>
    <tripinfo id="0_53" depart="132.00" departLane="CMB_to_KBJ_001_2" departPos="4.30" departPosLat="0.00" departSpeed="0.00" departDelay="1.84" arrival="179.00" arrivalLane="30093400_1" arrivalPos="127.33" arrivalPosLat="-0.55" arrivalSpeed="9.28" duration="47.00" routeLength="242.06" waitingTime="6.00" waitingCount="1" stopTime="0.00" timeLoss="26.25" rerouteNo="0" devices="tripinfo_0_53" vType="Car" speedFactor="1.15" vaporized=""/>
    <tripinfo id="0_59" depart="148.00" departLane="MRT_to_KB_001.37_3" departPos="4.30" departPosLat="0.00" departSpeed="0.00" departDelay="0.52" arrival="179.00" arrivalLane="KBJ_to_CMB_002_3" arrivalPos="146.55" arrivalPosLat="-0.20" arrivalSpeed="12.54" duration="31.00" routeLength="297.79" waitingTime="0.00" waitingCount="0" stopTime="0.00" timeLoss="7.34" rerouteNo="0" devices="tripinfo_0_59" vType="Car" speedFactor="0.79" vaporized=""/>
    <tripinfo id="0_63" depart="151.00" departLane="MRT_to_KB_001_2" departPos="2.10" departPosLat="0.00" departSpeed="0.00" departDelay="0.06" arrival="179.00" arrivalLane="KBJ_to_CMB_002_2" arrivalPos="146.55" arrivalPosLat="0.15" arrivalSpeed="15.43" duration="28.00" routeLength="348.78" waitingTime="0.00" waitingCount="0" stopTime="0.00" timeLoss="4.80" rerouteNo="0" devices="tripinfo_0_63" vType="Motor_Cycle" speedFactor="0.98" vaporized=""/>
    <tripinfo id="0_70" depart="165.00" departLane="MRT_to_KB_001.37_3" departPos="5.40" departPosLat="0.00" departSpeed="0.00" departDelay="2.21" arrival="179.00" arrivalLane="KBJ_to_CMB_001_3" arrivalPos="57.78" arrivalPosLat="-0.45" arrivalSpeed="13.41" duration="14.00" routeLength="131.53" waitingTime="0.00" waitingCount="0" stopTime="0.00" timeLoss="3.62" rerouteNo="0" devices="tripinfo_0_70" vType="Van" speedFactor="0.83" vaporized=""/>