<?xml version="1.0" encoding="UTF-8"?>

<!-- generated on 2025-08-05 09:08:36 by Eclipse SUMO GUI Version 1.24.0
<sumoConfiguration xmlns:xsi="http://www.w3.org/2001/XMLSchema-instance" xsi:noNamespaceSchemaLocation="http://sumo.dlr.de/xsd/sumoConfiguration.xsd">

    <input>
        <net-file value="network/katubedda_junction_network.net.xml"/>
        <route-files value="demand/calibrated_demand_warmup.rou.xml,                             demand/calibrated_demand_6am_7am.rou.xml,                             demand/bus_demand.rou.xml"/>
        <additional-files value="additionals/bus/bus_stops.add.xml,                                 additionals/lane_detectors_dynamic.add.xml,                                 additionals/vtype_dist_base.xml"/>
    </input>

    <output>
        <queue-output value="outputs/dynamic_QL_vehicle_data/224178.dynamic_QL_vehicle_data.xml"/>
        <queue-output.period value="300"/>
        <tripinfo-output value="outputs/dynamic_QL_vehicle_data/224178.tripinfo_dynamic_QL_vehicle_data.xml"/>
    </output>

    <processing>
        <lateral-resolution value="1.2"/>
        <collision.action value="none"/>
    </processing>

    <traci_server>
        <remote-port value="53573"/>
    </traci_server>

    <random_number>
        <seed value="224178"/>
    </random_number>

    <gui_only>
        <gui-settings-file value="additionals/satelite_image_bg.xml"/>
    </gui_only>

</sumoConfiguration>
-->

<tripinfos xmlns:xsi="http://www.w3.org/2001/XMLSchema-instance" xsi:noNamespaceSchemaLocation="http://sumo.dlr.de/xsd/tripinfo_file.xsd">
    <tripinfo id="0_3" depart="8.00" departLane="CMB_to_KBJ_003_2" departPos="4.30" departPosLat="0.00" departSpeed="0.00" departDelay="0.39" arrival="31.00" arrivalLane="KB_to_MRT_001_1" arrivalPos="44.82" arrivalPosLat="-0.65" arrivalSpeed="15.26" duration="23.00" routeLength="299.52" waitingTime="0.00" waitingCount="0" stopTime="0.00" timeLoss="4.60" rerouteNo="0" devices="tripinfo_0_3" vType="Car" speedFactor="0.98" vaporized=""/>
    <tripinfo id="0_1" depart="5.00" departLane="MRT_to_KB_001_2" departPos="4.30" departPosLat="0.00" departSpeed="0.00" departDelay="0.36" arrival="33.00" arrivalLane="KBJ_to_CMB_002_1" arrivalPos="146.55" arrivalPosLat="0.50" arrivalSpeed="14.59" duration="28.00" routeLength="346.58" waitingTime="0.00" waitingCount="0" stopTime="0.00" timeLoss="3.19" rerouteNo="0" devices="tripinfo_0_1" vType="Car" speedFactor="0.89" vaporized=""/>
    <tripinfo id="0_10" depart="14.00" departLane="MRT_to_KB_003_2" departPos="2.65" departPosLat="0.00" departSpeed="0.00" departDelay="0.20" arrival="34.00" arrivalLane="KBJ_to_CMB_001_3" arrivalPos="57.78" arrivalPosLat="0.45" arrivalSpeed="16.27" duration="20.00" routeLength="233.64" waitingTime="0.00" waitingCount="0" stopTime="0.00" timeLoss="5.14" rerouteNo="0" devices="tripinfo_0_10" vType="3_Wheeler" speedFactor="1.16" vaporized=""/>
    <tripinfo id="0_5" depart="10.00" departLane="MRT_to_KB_001_2" departPos="4.30" departPosLat="0.00" departSpeed="0.00" departDelay="0.85" arrival="35.00" arrivalLane="KBJ_to_CMB_002_1" arrivalPos="146.55" arrivalPosLat="-0.70" arrivalSpeed="17.77" duration="25.00" routeLength="346.58" waitingTime="0.00" waitingCount="0" stopTime="0.00" timeLoss="4.32" rerouteNo="0" devices="tripinfo_0_5" vType="Car" speedFactor="1.08" vaporized=""/>
    <tripinfo id="0_11" depart="16.00" departLane="MRT_to_KB_003_1" departPos="4.30" departPosLat="0.00" departSpeed="0.00" departDelay="0.50" arrival="36.00" arrivalLane="KBJ_to_CMB_001_3" arrivalPos="57.78" arrivalPosLat="-0.45" arrivalSpeed="16.64" duration="20.00" routeLength="231.99" waitingTime="0.00" waitingCount="0" stopTime="0.00" timeLoss="4.06" rerouteNo="0" devices="tripinfo_0_11" vType="Car" speedFactor="1.00" vaporized=""/>
    <tripinfo id="0_8" depart="13.00" departLane="MRT_to_KB_003_1" departPos="2.10" departPosLat="0.00" departSpeed="0.00" departDelay="0.78" arrival="37.00" arrivalLane="KBJ_to_CMB_001_2" arrivalPos="57.78" arrivalPosLat="0.30" arrivalSpeed="13.79" duration="24.00" routeLength="234.19" waitingTime="0.00" waitingCount="0" stopTime="0.00" timeLoss="4.21" rerouteNo="0" devices="tripinfo_0_8" vType="Motor_Cycle" speedFactor="0.84" vaporized=""/>
    <tripinfo id="0_0" depart="5.00" departLane="MRT_to_KB_003_1" departPos="5.40" departPosLat="0.00" departSpeed="0.00" departDelay="0.68" arrival="39.00" arrivalLane="KBJ_to_CMB_002_2" arrivalPos="146.55" arrivalPosLat="-0.45" arrivalSpeed="15.44" duration="34.00" routeLength="396.05" waitingTime="0.00" waitingCount="0" stopTime="0.00" timeLoss="5.87" rerouteNo="0" devices="tripinfo_0_0" vType="Van" speedFactor="0.94" vaporized=""/>
    <tripinfo id="0_4" depart="8.00" departLane="MRT_to_KB_003_2" departPos="2.65" departPosLat="0.00" departSpeed="0.00" departDelay="0.05" arrival="40.00" arrivalLane="KBJ_to_CMB_002_2" arrivalPos="146.55" arrivalPosLat="0.45" arrivalSpeed="15.62" duration="32.00" routeLength="398.80" waitingTime="0.00" waitingCount="0" stopTime="0.00" timeLoss="4.74" rerouteNo="0" devices="tripinfo_0_4" vType="3_Wheeler" speedFactor="0.94" vaporized=""/>
    <tripinfo id="0_6" depart="13.00" departLane="MRT_to_KB_001_2" departPos="4.30" departPosLat="0.00" departSpeed="0.00" departDelay="2.22" arrival="40.00" arrivalLane="KBJ_to_CMB_002_1" arrivalPos="146.55" arrivalPosLat="-0.70" arrivalSpeed="15.34" duration="27.00" routeLength="346.58" waitingTime="0.00" waitingCount="0" stopTime="0.00" timeLoss="3.91" rerouteNo="0" devices="tripinfo_0_6" vType="Car" speedFactor="0.95" vaporized=""/>
    <tripinfo id="0_7" depart="12.00" departLane="CMB_to_KBJ_002_2" departPos="2.65" departPosLat="0.00" departSpeed="0.00" departDelay="0.80" arrival="41.00" arrivalLane="KB_to_MRT_002_1" arrivalPos="130.27" arrivalPosLat="1.00" arrivalSpeed="14.60" duration="29.00" routeLength="294.61" waitingTime="0.00" waitingCount="0" stopTime="0.00" timeLoss="7.94" rerouteNo="0" devices="tripinfo_0_7" vType="3_Wheeler" speedFactor="0.88" vaporized=""/>
    <tripinfo id="0_9" depart="14.00" departLane="CMB_to_KBJ_001_2" departPos="5.40" departPosLat="0.00" departSpeed="0.00" departDelay="0.41" arrival="47.00" arrivalLane="30093400_1" arrivalPos="127.33" arrivalPosLat="-0.55" arrivalSpeed="6.95" duration="33.00" routeLength="240.96" waitingTime="0.00" waitingCount="0" stopTime="0.00" timeLoss="6.20" rerouteNo="0" devices="tripinfo_0_9" vType="Van" speedFactor="0.88" vaporized=""/>
    <tripinfo id="0_17" depart="30.00" departLane="MRT_to_KB_003_1" departPos="2.65" departPosLat="0.00" departSpeed="0.00" departDelay="0.65" arrival="50.00" arrivalLane="KBJ_to_CMB_001_3" arrivalPos="57.78" arrivalPosLat="0.45" arrivalSpeed="16.19" duration="20.00" routeLength="233.64" waitingTime="0.00" waitingCount="0" stopTime="0.00" timeLoss="4.88" rerouteNo="0" devices="tripinfo_0_17" vType="3_Wheeler" speedFactor="1.08" vaporized=""/>
    <tripinfo id="0_16" depart="30.00" departLane="MRT_to_KB_001.37_2" departPos="4.30" departPosLat="0.00" departSpeed="0.00" departDelay="0.85" arrival="56.00" arrivalLane="KBJ_to_CMB_002_1" arrivalPos="146.55" arrivalPosLat="0.50" arrivalSpeed="14.20" duration="26.00" routeLength="297.79" waitingTime="0.00" waitingCount="0" stopTime="0.00" timeLoss="3.69" rerouteNo="0" devices="tripinfo_0_16" vType="Car" speedFactor="0.86" vaporized=""/>
    <tripinfo id="0_12" depart="22.00" departLane="MRT_to_KB_003_1" departPos="4.30" departPosLat="0.00" departSpeed="0.00" departDelay="0.83" arrival="57.00" arrivalLane="KBJ_to_CMB_002_2" arrivalPos="146.55" arrivalPosLat="-0.45" arrivalSpeed="14.26" duration="35.00" routeLength="397.15" waitingTime="0.00" waitingCount="0" stopTime="0.00" timeLoss="5.38" rerouteNo="0" devices="tripinfo_0_12" vType="Car" speedFactor="0.88" vaporized=""/>
    <tripinfo id="0_14" depart="26.00" departLane="MRT_to_KB_001_2" departPos="2.65" departPosLat="0.00" departSpeed="0.00" departDelay="0.40" arrival="57.00" arrivalLane="KBJ_to_CMB_002_1" arrivalPos="146.55" arrivalPosLat="-0.00" arrivalSpeed="15.24" duration="31.00" routeLength="348.23" waitingTime="0.00" waitingCount="0" stopTime="0.00" timeLoss="8.11" rerouteNo="0" devices="tripinfo_0_14" vType="3_Wheeler" speedFactor="0.97" vaporized=""/>
    <tripinfo id="0_18" depart="35.00" departLane="MRT_to_KB_001.37_4" departPos="2.10" departPosLat="0.00" departSpeed="0.00" departDelay="0.18" arrival="58.00" arrivalLane="KBJ_to_CMB_002_3" arrivalPos="146.55" arrivalPosLat="0.00" arrivalSpeed="17.18" duration="23.00" routeLength="299.99" waitingTime="0.00" waitingCount="0" stopTime="0.00" timeLoss="4.19" rerouteNo="0" devices="tripinfo_0_18" vType="Motor_Cycle" speedFactor="1.04" vaporized=""/>
    <tripinfo id="0_15" depart="30.00" departLane="MRT_to_KB_001_2" departPos="2.65" departPosLat="0.00" departSpeed="0.00" departDelay="1.81" arrival="60.00" arrivalLane="KBJ_to_CMB_002_1" arrivalPos="146.55" arrivalPosLat="0.00" arrivalSpeed="13.91" duration="30.00" routeLength="348.23" waitingTime="0.00" waitingCount="0" stopTime="0.00" timeLoss="4.58" rerouteNo="0" devices="tripinfo_0_15" vType="3_Wheeler" speedFactor="0.87" vaporized=""/>
    <tripinfo id="0_20" depart="43.00" departLane="MRT_to_KB_003_2" departPos="2.10" departPosLat="0.00" departSpeed="0.00" departDelay="0.97" arrival="64.00" arrivalLane="KBJ_to_CMB_001_3" arrivalPos="57.78" arrivalPosLat="0.15" arrivalSpeed="16.06" duration="21.00" routeLength="234.19" waitingTime="0.00" waitingCount="0" stopTime="0.00" timeLoss="3.88" rerouteNo="0" devices="tripinfo_0_20" vType="Motor_Cycle" speedFactor="0.97" vaporized=""/>
    <tripinfo id="0_25" depart="52.00" departLane="MRT_to_KB_001.37_2" departPos="2.10" departPosLat="0.00" departSpeed="0.00" departDelay="0.01" arrival="66.00" arrivalLane="KBJ_to_CMB_001_2" arrivalPos="57.78" arrivalPosLat="0.00" arrivalSpeed="15.32" duration="14.00" routeLength="134.83" waitingTime="0.00" waitingCount="0" stopTime="0.00" timeLoss="4.58" rerouteNo="0" devices="tripinfo_0_25" vType="Motor_Cycle" speedFactor="0.99" vaporized=""/>
    <tripinfo id="0_26" depart="54.00" departLane="MRT_to_KB_001.37_4" departPos="4.30" departPosLat="0.00" departSpeed="0.00" departDelay="0.87" arrival="67.00" arrivalLane="KBJ_to_CMB_001_4" arrivalPos="57.78" arrivalPosLat="-0.60" arrivalSpeed="15.06" duration="13.00" routeLength="132.63" waitingTime="0.00" waitingCount="0" stopTime="0.00" timeLoss="3.41" rerouteNo="0" devices="tripinfo_0_26" vType="Car" speedFactor="0.90" vaporized=""/>
    <tripinfo id="0_19" depart="39.00" departLane="MRT_to_KB_003_1" departPos="2.65" departPosLat="0.00" departSpeed="0.00" departDelay="0.88" arrival="72.00" arrivalLane="KBJ_to_CMB_002_2" arrivalPos="146.55" arrivalPosLat="0.45" arrivalSpeed="15.55" duration="33.00" routeLength="398.80" waitingTime="0.00" waitingCount="0" stopTime="0.00" timeLoss="5.57" rerouteNo="0" devices="tripinfo_0_19" vType="3_Wheeler" speedFactor="0.96" vaporized=""/>
    <tripinfo id="0_2" depart="8.00" departLane="MRT_to_KB_001_4" departPos="2.65" departPosLat="0.00" departSpeed="0.00" departDelay="0.71" arrival="91.00" arrivalLane="KBJ_to_P_2" arrivalPos="128.65" arrivalPosLat="0.00" arrivalSpeed="15.20" duration="83.00" routeLength="249.26" waitingTime="52.00" waitingCount="1" stopTime="0.00" timeLoss="66.20" rerouteNo="0" devices="tripinfo_0_2" vType="3_Wheeler" speedFactor="1.12" vaporized=""/>
    <tripinfo id="0_24" depart="52.00" departLane="P_to_KBJ_1" departPos="4.30" departPosLat="0.00" departSpeed="0.00" departDelay="0.04" arrival="91.00" arrivalLane="KB_to_MRT_002_2" arrivalPos="130.27" arrivalPosLat="-0.45" arrivalSpeed="14.05" duration="39.00" routeLength="335.94" waitingTime="4.00" waitingCount="1" stopTime="0.00" timeLoss="12.66" rerouteNo="0" devices="tripinfo_0_24" vType="Car" speedFactor="0.86" vaporized=""/>
    <tripinfo id="0_21" depart="47.00" departLane="MRT_to_KB_003_3" departPos="2.10" departPosLat="0.00" departSpeed="0.00" departDelay="0.07" arrival="93.00" arrivalLane="KBJ_to_P_2" arrivalPos="128.65" arrivalPosLat="0.00" arrivalSpeed="12.58" duration="46.00" routeLength="300.38" waitingTime="11.00" waitingCount="1" stopTime="0.00" timeLoss="23.30" rerouteNo="0" devices="tripinfo_0_21" vType="Motor_Cycle" speedFactor="0.97" vaporized=""/>
    <tripinfo id="0_36" depart="89.00" departLane="MRT_to_KB_001_4" departPos="4.30" departPosLat="0.00" departSpeed="0.00" departDelay="0.67" arrival="111.00" arrivalLane="KBJ_to_P_2" arrivalPos="128.65" arrivalPosLat="0.50" arrivalSpeed="15.41" duration="22.00" routeLength="247.61" waitingTime="0.00" waitingCount="0" stopTime="0.00" timeLoss="5.25" rerouteNo="0" devices="tripinfo_0_36" vType="Car" speedFactor="1.11" vaporized=""/>
    <tripinfo id="0_22" depart="49.00" departLane="P_to_KBJ_2" departPos="5.40" departPosLat="0.00" departSpeed="0.00" departDelay="0.12" arrival="126.00" arrivalLane="KBJ_to_CMB_002_3" arrivalPos="146.55" arrivalPosLat="-0.60" arrivalSpeed="17.10" duration="77.00" routeLength="387.71" waitingTime="41.00" waitingCount="1" stopTime="0.00" timeLoss="51.36" rerouteNo="0" devices="tripinfo_0_22" vType="Van" speedFactor="1.03" vaporized=""/>
    <tripinfo id="0_35" depart="89.00" departLane="MRT_to_KB_003_1" departPos="2.10" departPosLat="0.00" departSpeed="0.00" departDelay="0.92" arrival="148.00" arrivalLane="KBJ_to_CMB_001_2" arrivalPos="57.78" arrivalPosLat="0.30" arrivalSpeed="15.19" duration="59.00" routeLength="234.19" waitingTime="32.00" waitingCount="2" stopTime="0.00" timeLoss="41.64" rerouteNo="0" devices="tripinfo_0_35" vType="Motor_Cycle" speedFactor="0.96" vaporized=""/>
    <tripinfo id="0_38" depart="97.00" departLane="MRT_to_KB_003_2" departPos="4.30" departPosLat="0.00" departSpeed="0.00" departDelay="0.11" arrival="150.00" arrivalLane="KBJ_to_CMB_001_3" arrivalPos="57.78" arrivalPosLat="-0.45" arrivalSpeed="17.29" duration="53.00" routeLength="231.99" waitingTime="27.00" waitingCount="1" stopTime="0.00" timeLoss="37.19" rerouteNo="0" devices="tripinfo_0_38" vType="Car" speedFactor="1.04" vaporized=""/>
    <tripinfo id="0_39" depart="102.00" departLane="CMB_to_KBJ_001_4" departPos="2.10" departPosLat="0.00" departSpeed="0.00" departDelay="0.60" arrival="153.00" arrivalLane="KB_to_MRT_002_3" arrivalPos="130.27" arrivalPosLat="0.00" arrivalSpeed="18.48" duration="51.00" routeLength="252.04" waitingTime="28.00" waitingCount="1" stopTime="0.00" timeLoss="37.62" rerouteNo="0" devices="tripinfo_0_39" vType="Motor_Cycle" speedFactor="1.13" vaporized=""/>
    <tripinfo id="0_45" depart="113.00" departLane="MRT_to_KB_003_2" departPos="2.65" departPosLat="0.00" departSpeed="0.00" departDelay="0.33" arrival="154.00" arrivalLane="KBJ_to_CMB_001_4" arrivalPos="57.78" arrivalPosLat="-0.10" arrivalSpeed="15.73" duration="41.00" routeLength="233.64" waitingTime="9.00" waitingCount="1" stopTime="0.00" timeLoss="25.21" rerouteNo="0" devices="tripinfo_0_45" vType="3_Wheeler" speedFactor="1.01" vaporized=""/>
    <tripinfo id="0_58" depart="143.00" departLane="MRT_to_KB_001.37_2" departPos="2.10" departPosLat="0.00" departSpeed="0.00" departDelay="0.75" arrival="155.00" arrivalLane="KBJ_to_CMB_001_2" arrivalPos="57.78" arrivalPosLat="0.30" arrivalSpeed="17.55" duration="12.00" routeLength="134.83" waitingTime="0.00" waitingCount="0" stopTime="0.00" timeLoss="3.30" rerouteNo="0" devices="tripinfo_0_58" vType="Motor_Cycle" speedFactor="1.06" vaporized=""/>
    <tripinfo id="0_29" depart="75.00" departLane="MRT_to_KB_001.37_4" departPos="2.10" departPosLat="0.00" departSpeed="0.00" departDelay="0.68" arrival="156.00" arrivalLane="KBJ_to_CMB_002_3" arrivalPos="146.55" arrivalPosLat="0.00" arrivalSpeed="17.88" duration="81.00" routeLength="299.99" waitingTime="52.00" waitingCount="1" stopTime="0.00" timeLoss="62.85" rerouteNo="0" devices="tripinfo_0_29" vType="Motor_Cycle" speedFactor="1.08" vaporized=""/>
    <tripinfo id="0_33" depart="85.00" departLane="MRT_to_KB_001.37_2" departPos="4.30" departPosLat="0.00" departSpeed="0.00" departDelay="0.77" arrival="158.00" arrivalLane="KBJ_to_CMB_002_3" arrivalPos="146.55" arrivalPosLat="-0.60" arrivalSpeed="16.58" duration="73.00" routeLength="297.79" waitingTime="42.00" waitingCount="1" stopTime="0.00" timeLoss="54.10" rerouteNo="0" devices="tripinfo_0_33" vType="Car" speedFactor="1.02" vaporized=""/>
    <tripinfo id="0_40" depart="107.00" departLane="MRT_to_KB_001.37_4" departPos="2.10" departPosLat="0.00" departSpeed="0.00" departDelay="0.21" arrival="160.00" arrivalLane="KBJ_to_CMB_002_3" arrivalPos="146.55" arrivalPosLat="0.20" arrivalSpeed="14.22" duration="53.00" routeLength="299.99" waitingTime="24.00" waitingCount="1" stopTime="0.00" timeLoss="33.32" rerouteNo="0" devices="tripinfo_0_40" vType="Motor_Cycle" speedFactor="0.95" vaporized=""/>
    <tripinfo id="0_32" depart="84.00" departLane="MRT_to_KB_001_2" departPos="2.10" departPosLat="0.00" departSpeed="0.00" departDelay="0.02" arrival="161.00" arrivalLane="KBJ_to_CMB_002_2" arrivalPos="146.55" arrivalPosLat="-1.05" arrivalSpeed="11.39" duration="77.00" routeLength="348.78" waitingTime="41.00" waitingCount="1" stopTime="0.00" timeLoss="53.71" rerouteNo="0" devices="tripinfo_0_32" vType="Motor_Cycle" speedFactor="0.95" vaporized=""/>
    <tripinfo id="0_42" depart="109.00" departLane="MRT_to_KB_001.37_2" departPos="2.65" departPosLat="0.00" departSpeed="0.00" departDelay="0.94" arrival="162.00" arrivalLane="KBJ_to_CMB_002_3" arrivalPos="146.55" arrivalPosLat="0.90" arrivalSpeed="15.92" duration="53.00" routeLength="299.44" waitingTime="19.00" waitingCount="2" stopTime="0.00" timeLoss="34.12" rerouteNo="0" devices="tripinfo_0_42" vType="3_Wheeler" speedFactor="1.01" vaporized=""/>
    <tripinfo id="0_23" depart="51.00" departLane="CMB_to_KBJ_001_2" departPos="2.10" departPosLat="0.00" departSpeed="0.00" departDelay="0.15" arrival="163.00" arrivalLane="30093400_1" arrivalPos="127.33" arrivalPosLat="-1.15" arrivalSpeed="8.85" duration="112.00" routeLength="244.26" waitingTime="79.00" waitingCount="1" stopTime="0.00" timeLoss="90.14" rerouteNo="0" devices="tripinfo_0_23" vType="Motor_Cycle" speedFactor="1.07" vaporized=""/>
    <tripinfo id="0_28" depart="66.00" departLane="MRT_to_KB_001.37_3" departPos="4.30" departPosLat="0.00" departSpeed="0.00" departDelay="1.25" arrival="163.00" arrivalLane="KBJ_to_CMB_002_2" arrivalPos="146.55" arrivalPosLat="0.75" arrivalSpeed="11.76" duration="97.00" routeLength="297.79" waitingTime="63.00" waitingCount="1" stopTime="0.00" timeLoss="77.31" rerouteNo="0" devices="tripinfo_0_28" vType="Car" speedFactor="0.95" vaporized=""/>
    <tripinfo id="0_13" depart="24.00" departLane="CMB_to_KBJ_003_2" departPos="2.10" departPosLat="0.00" departSpeed="0.00" departDelay="0.46" arrival="164.00" arrivalLane="30093400_1" arrivalPos="127.33" arrivalPosLat="1.05" arrivalSpeed="8.27" duration="140.00" routeLength="437.99" waitingTime="90.00" waitingCount="1" stopTime="0.00" timeLoss="105.62" rerouteNo="0" devices="tripinfo_0_13" vType="Motor_Cycle" speedFactor="1.04" vaporized=""/>
    <tripinfo id="0_62" depart="151.00" departLane="MRT_to_KB_001.37_3" departPos="4.30" departPosLat="0.00" departSpeed="0.00" departDelay="0.21" arrival="164.00" arrivalLane="KBJ_to_CMB_001_3" arrivalPos="57.78" arrivalPosLat="-0.45" arrivalSpeed="17.15" duration="13.00" routeLength="132.63" waitingTime="0.00" waitingCount="0" stopTime="0.00" timeLoss="4.27" rerouteNo="0" devices="tripinfo_0_62" vType="Car" speedFactor="1.09" vaporized=""/>
    <tripinfo id="0_41" depart="108.00" departLane="MRT_to_KB_003_1" departPos="4.30" departPosLat="0.00" departSpeed="0.00" departDelay="0.15" arrival="165.00" arrivalLane="KBJ_to_CMB_002_3" arrivalPos="146.55" arrivalPosLat="-0.60" arrivalSpeed="15.35" duration="57.00" routeLength="397.15" waitingTime="16.00" waitingCount="1" stopTime="0.00" timeLoss="30.77" rerouteNo="0" devices="tripinfo_0_41" vType="Car" speedFactor="1.00" vaporized=""/>
    <tripinfo id="0_34" depart="86.00" departLane="MRT_to_KB_001_3" departPos="4.30" departPosLat="0.00" departSpeed="0.00" departDelay="0.04" arrival="167.00" arrivalLane="KBJ_to_CMB_002_2" arrivalPos="146.55" arrivalPosLat="1.45" arrivalSpeed="11.57" duration="81.00" routeLength="346.58" waitingTime="40.00" waitingCount="1" stopTime="0.00" timeLoss="57.45" rerouteNo="0" devices="tripinfo_0_34" vType="Car" speedFactor="0.93" vaporized=""/>
    <tripinfo id="0_27" depart="59.00" departLane="MRT_to_KB_001_2" departPos="2.10" departPosLat="0.00" departSpeed="0.00" departDelay="0.43" arrival="170.00" arrivalLane="KBJ_to_CMB_002_2" arrivalPos="146.55" arrivalPosLat="-0.05" arrivalSpeed="11.55" duration="111.00" routeLength="348.78" waitingTime="67.00" waitingCount="2" stopTime="0.00" timeLoss="85.25" rerouteNo="0" devices="tripinfo_0_27" vType="Motor_Cycle" speedFactor="0.88" vaporized=""/>
    <tripinfo id="0_47" depart="116.00" departLane="MRT_to_KB_003_1" departPos="2.10" departPosLat="0.00" departSpeed="0.00" departDelay="0.17" arrival="170.00" arrivalLane="KBJ_to_CMB_002_3" arrivalPos="146.55" arrivalPosLat="0.00" arrivalSpeed="13.98" duration="54.00" routeLength="399.35" waitingTime="7.00" waitingCount="1" stopTime="0.00" timeLoss="26.30" rerouteNo="0" devices="tripinfo_0_47" vType="Motor_Cycle" speedFactor="0.96" vaporized=""/>
    <tripinfo id="0_30" depart="76.00" departLane="CMB_to_KBJ_003_2" departPos="5.40" departPosLat="0.00" departSpeed="0.00" departDelay="0.93" arrival="171.00" arrivalLane="30093400_1" arrivalPos="127.33" arrivalPosLat="-0.55" arrivalSpeed="7.51" duration="95.00" routeLength="434.69" waitingTime="39.00" waitingCount="1" stopTime="0.00" timeLoss="56.67" rerouteNo="0" devices="tripinfo_0_30" vType="Van" speedFactor="0.92" vaporized=""/>
    <tripinfo id="0_49" depart="121.00" departLane="MRT_to_KB_001_2" departPos="5.40" departPosLat="0.00" departSpeed="0.00" departDelay="1.45" arrival="171.00" arrivalLane="KBJ_to_CMB_002_3" arrivalPos="146.55" arrivalPosLat="0.60" arrivalSpeed="11.19" duration="50.00" routeLength="345.48" waitingTime="5.00" waitingCount="2" stopTime="0.00" timeLoss="28.36" rerouteNo="0" devices="tripinfo_0_49" vType="Van" speedFactor="1.02" vaporized=""/>
    <tripinfo id="0_37" depart="96.00" departLane="MRT_to_KB_003_1" departPos="4.30" departPosLat="0.00" departSpeed="0.00" departDelay="0.92" arrival="172.00" arrivalLane="KBJ_to_CMB_002_2" arrivalPos="146.55" arrivalPosLat="0.65" arrivalSpeed="12.62" duration="76.00" routeLength="397.15" waitingTime="27.00" waitingCount="1" stopTime="0.00" timeLoss="50.38" rerouteNo="0" devices="tripinfo_0_37" vType="Car" speedFactor="1.03" vaporized=""/>
    <tripinfo id="0_31" depart="82.00" departLane="CMB_to_KBJ_003_2" departPos="4.30" departPosLat="0.00" departSpeed="0.00" departDelay="0.75" arrival="173.00" arrivalLane="30093400_1" arrivalPos="127.33" arrivalPosLat="-0.55" arrivalSpeed="7.53" duration="91.00" routeLength="435.79" waitingTime="36.00" waitingCount="1" stopTime="0.00" timeLoss="55.90" rerouteNo="0" devices="tripinfo_0_31" vType="Car" speedFactor="1.01" vaporized=""/>
    <tripinfo id="0_64" depart="154.00" departLane="MRT_to_KB_003_1" departPos="2.10" departPosLat="0.00" departSpeed="0.00" departDelay="0.60" arrival="174.00" arrivalLane="KBJ_to_CMB_001_2" arrivalPos="57.78" arrivalPosLat="1.10" arrivalSpeed="16.40" duration="20.00" routeLength="234.19" waitingTime="0.00" waitingCount="0" stopTime="0.00" timeLoss="4.06" rerouteNo="0" devices="tripinfo_0_64" vType="Motor_Cycle" speedFactor="1.04" vaporized=""/>
    <tripinfo id="0_65" depart="155.00" departLane="CMB_to_KBJ_001_2" departPos="2.10" departPosLat="0.00" departSpeed="0.00" departDelay="0.11" arrival="174.00" arrivalLane="KB_to_MRT_002_2" arrivalPos="130.27" arrivalPosLat="-0.20" arrivalSpeed="18.15" duration="19.00" routeLength="252.04" waitingTime="0.00" waitingCount="0" stopTime="0.00" timeLoss="4.77" rerouteNo="0" devices="tripinfo_0_65" vType="Motor_Cycle" speedFactor="1.11" vaporized=""/>
    <tripinfo id="0_51" depart="126.00" departLane="MRT_to_KB_003_1" departPos="2.10" departPosLat="0.00" departSpeed="0.00" departDelay="0.12" arrival="175.00" arrivalLane="KBJ_to_CMB_002_3" arrivalPos="146.55" arrivalPosLat="-0.20" arrivalSpeed="13.69" duration="49.00" routeLength="399.35" waitingTime="0.00" waitingCount="0" stopTime="0.00" timeLoss="25.25" rerouteNo="0" devices="tripinfo_0_51" vType="Motor_Cycle" speedFactor="1.11" vaporized=""/>
    <tripinfo id="0_59" depart="149.00" departLane="MRT_to_KB_001.37_2" departPos="2.10" departPosLat="0.00" departSpeed="0.00" departDelay="1.52" arrival="175.00" arrivalLane="KBJ_to_CMB_002_2" arrivalPos="146.55" arrivalPosLat="0.05" arrivalSpeed="12.43" duration="26.00" routeLength="299.99" waitingTime="0.00" waitingCount="0" stopTime="0.00" timeLoss="7.40" rerouteNo="0" devices="tripinfo_0_59" vType="Motor_Cycle" speedFactor="1.01" vaporized=""/>
    <tripinfo id="0_69" depart="164.00" departLane="MRT_to_KB_001.37_4" departPos="4.30" departPosLat="0.00" departSpeed="0.00" departDelay="1.81" arrival="177.00" arrivalLane="KBJ_to_CMB_001_4" arrivalPos="57.78" arrivalPosLat="-0.20" arrivalSpeed="14.80" duration="13.00" routeLength="132.63" waitingTime="0.00" waitingCount="0" stopTime="0.00" timeLoss="3.17" rerouteNo="0" devices="tripinfo_0_69" vType="Car" speedFactor="0.91" vaporized=""/>
    <tripinfo id="0_70" depart="165.00" departLane="MRT_to_KB_001.37_3" departPos="4.30" departPosLat="0.00" departSpeed="0.00" departDelay="2.21" arrival="177.00" arrivalLane="KBJ_to_CMB_001_3" arrivalPos="57.78" arrivalPosLat="-0.45" arrivalSpeed="19.22" duration="12.00" routeLength="132.63" waitingTime="0.00" waitingCount="0" stopTime="0.00" timeLoss="3.79" rerouteNo="0" devices="tripinfo_0_70" vType="Car" speedFactor="1.16" vaporized=""/>
    <tripinfo id="0_50" depart="123.00" departLane="CMB_to_KBJ_002_2" departPos="4.30" departPosLat="0.00" departSpeed="0.00" departDelay="0.31" arrival="178.00" arrivalLane="30093400_1" arrivalPos="127.33" arrivalPosLat="-0.55" arrivalSpeed="6.08" duration="55.00" routeLength="285.18" waitingTime="7.00" waitingCount="1" stopTime="0.00" timeLoss="23.41" rerouteNo="0" devices="tripinfo_0_50" vType="Car" speedFactor="0.84" vaporized=""/>
    <tripinfo id="0_52" depart="129.00" departLane="MRT_to_KB_001_2" departPos="2.10" departPosLat="0.00" departSpeed="0.00" departDelay="0.54" arrival="178.00" arrivalLane="KBJ_to_CMB_002_2" arrivalPos="146.55" arrivalPosLat="-0.05" arrivalSpeed="11.89" duration="49.00" routeLength="348.78" waitingTime="3.00" waitingCount="2" stopTime="0.00" timeLoss="25.48" rerouteNo="0" devices="tripinfo_0_52" vType="Motor_Cycle" speedFactor="0.96" vaporized=""/>
    <tripinfo id="0_55" depart="138.00" departLane="MRT_to_KB_001.37_3" departPos="4.30" departPosLat="0.00" departSpeed="0.00" departDelay="0.52" arrival="178.00" arrivalLane="KBJ_to_CMB_002_3" arrivalPos="146.55" arrivalPosLat="-0.20" arrivalSpeed="13.07" duration="40.00" routeLength="297.79" waitingTime="0.00" waitingCount="0" stopTime="0.00" timeLoss="24.82" rerouteNo="0" devices="tripinfo_0_55" vType="Car" speedFactor="1.25" vaporized=""/>
    <tripinfo id="0_53" depart="141.00" departLane="CMB_to_KBJ_001_2" departPos="6.35" departPosLat="0.00" departSpeed="0.00" departDelay="10.84" arrival="180.00" arrivalLane="30093400_1" arrivalPos="127.33" arrivalPosLat="-0.42" arrivalSpeed="8.57" duration="39.00" routeLength="240.01" waitingTime="0.00" waitingCount="0" stopTime="0.00" timeLoss="14.56" rerouteNo="0" devices="tripinfo_0_53" vType="Goods_Vehicle" speedFactor="1.04" vaporized=""/>
    <tripinfo id="0_60" depart="151.00" departLane="MRT_to_KB_001.37_4" departPos="2.10" departPosLat="0.00" departSpeed="0.00" departDelay="3.24" arrival="180.00" arrivalLane="KBJ_to_CMB_002_3" arrivalPos="146.55" arrivalPosLat="0.00" arrivalSpeed="13.21" duration="29.00" routeLength="299.99" waitingTime="0.00" waitingCount="0" stopTime="0.00" timeLoss="8.06" rerouteNo="0" devices="tripinfo_0_60" vType="Motor_Cycle" speedFactor="0.92" vaporized=""/>
    <tripinfo id="bus_100/101/400/412/418/428/430/433:0.0" depart="0.00" departLane="MRT_to_KB_001_1" departPos="12.10" departPosLat="0.00" departSpeed="0.00" departDelay="0.00" arrival="183.00" arrivalLane="KBJ_to_CMB_002_1" arrivalPos="146.55" arrivalPosLat="-0.10" arrivalSpeed="6.20" duration="183.00" routeLength="338.78" waitingTime="0.00" waitingCount="0" stopTime="115.00" timeLoss="46.35" rerouteNo="0" devices="tripinfo_bus_100/101/400/412/418/428/430/433:0.0" vType="bus" speedFactor="1.00" vaporized=""/>
    <tripinfo id="0_46" depart="116.00" departLane="MRT_to_KB_001.37_2" departPos="5.40" departPosLat="0.00" departSpeed="0.00" departDelay="0.47" arrival="183.00" arrivalLane="KBJ_to_CMB_002_2" arrivalPos="146.55" arrivalPosLat="-0.45" arrivalSpeed="10.80" duration="67.00" routeLength="296.69" waitingTime="21.00" waitingCount="4" stopTime="0.00" timeLoss="48.92" rerouteNo="0" devices="tripinfo_0_46" vType="Van" speedFactor="1.04" vaporized=""/>
    <tripinfo id="0_56" depart="140.00" departLane="MRT_to_KB_003_1" departPos="4.30" departPosLat="0.00" departSpeed="0.00" departDelay="0.32" arrival="184.00" arrivalLane="KBJ_to_CMB_002_2" arrivalPos="146.55" arrivalPosLat="-0.45" arrivalSpeed="11.53" duration="44.00" routeLength="397.15" waitingTime="1.00" waitingCount="1" stopTime="0.00" timeLoss="17.55" rerouteNo="0" devices="tripinfo_0_56" vType="Car" speedFactor="0.97" vaporized=""/>
    <tripinfo id="0_48" depart="117.00" departLane="MRT_to_KB_001_2" departPos="4.30" departPosLat="0.00" departSpeed="0.00" departDelay="0.55" arrival="186.00" arrivalLane="KBJ_to_CMB_002_1" arrivalPos="146.55" arrivalPosLat="-0.70" arrivalSpeed="10.64" duration="69.00" routeLength="346.58" waitingTime="17.00" waitingCount="4" stopTime="0.00" timeLoss="46.22" rerouteNo="0" devices="tripinfo_0_48" vType="Car" speedFactor="0.99" vaporized=""/>