<?xml version="1.0" encoding="UTF-8"?>

<!-- generated on 2025-08-05 09:22:25 by Eclipse SUMO sumo Version 1.24.0
<sumoConfiguration xmlns:xsi="http://www.w3.org/2001/XMLSchema-instance" xsi:noNamespaceSchemaLocation="http://sumo.dlr.de/xsd/sumoConfiguration.xsd">

    <input>
        <net-file value="network/katubedda_junction_network.net.xml"/>
        <route-files value="demand/calibrated_demand_warmup.rou.xml,                             demand/calibrated_demand_6am_7am.rou.xml,                             demand/bus_demand.rou.xml"/>
        <additional-files value="additionals/bus/bus_stops.add.xml,                                 additionals/lane_detectors_dynamic.add.xml,                                 additionals/vtype_dist_base.xml"/>
    </input>

    <output>
        <queue-output value="outputs/dynamic_QL_vehicle_data/49143.dynamic_QL_vehicle_data.xml"/>
        <queue-output.period value="300"/>
        <tripinfo-output value="outputs/dynamic_QL_vehicle_data/49143.tripinfo_dynamic_QL_vehicle_data.xml"/>
    </output>

    <processing>
        <lateral-resolution value="1.2"/>
        <collision.action value="none"/>
    </processing>

    <traci_server>
        <remote-port value="49369"/>
    </traci_server>

    <random_number>
        <seed value="49143"/>
    </random_number>

    <gui_only>
        <gui-settings-file value="additionals/satelite_image_bg.xml"/>
    </gui_only>

</sumoConfiguration>
-->

<tripinfos xmlns:xsi="http://www.w3.org/2001/XMLSchema-instance" xsi:noNamespaceSchemaLocation="http://sumo.dlr.de/xsd/tripinfo_file.xsd">
    <tripinfo id="0_3" depart="8.00" departLane="CMB_to_KBJ_003_2" departPos="2.10" departPosLat="0.00" departSpeed="0.00" departDelay="0.39" arrival="31.00" arrivalLane="KB_to_MRT_001_1" arrivalPos="44.82" arrivalPosLat="0.00" arrivalSpeed="16.27" duration="23.00" routeLength="301.72" waitingTime="0.00" waitingCount="0" stopTime="0.00" timeLoss="4.39" rerouteNo="0" devices="tripinfo_0_3" vType="Motor_Cycle" speedFactor="1.02" vaporized=""/>
    <tripinfo id="0_1" depart="5.00" departLane="MRT_to_KB_001_2" departPos="4.30" departPosLat="0.00" departSpeed="0.00" departDelay="0.36" arrival="32.00" arrivalLane="KBJ_to_CMB_002_1" arrivalPos="146.55" arrivalPosLat="0.50" arrivalSpeed="15.83" duration="27.00" routeLength="346.58" waitingTime="0.00" waitingCount="0" stopTime="0.00" timeLoss="3.64" rerouteNo="0" devices="tripinfo_0_1" vType="Car" speedFactor="0.95" vaporized=""/>
    <tripinfo id="0_8" depart="13.00" departLane="MRT_to_KB_003_1" departPos="2.10" departPosLat="0.00" departSpeed="0.00" departDelay="0.78" arrival="34.00" arrivalLane="KBJ_to_CMB_001_2" arrivalPos="57.78" arrivalPosLat="1.00" arrivalSpeed="14.10" duration="21.00" routeLength="234.19" waitingTime="0.00" waitingCount="0" stopTime="0.00" timeLoss="3.88" rerouteNo="0" devices="tripinfo_0_8" vType="Motor_Cycle" speedFactor="0.94" vaporized=""/>
    <tripinfo id="0_5" depart="10.00" departLane="MRT_to_KB_001_2" departPos="4.30" departPosLat="0.00" departSpeed="0.00" departDelay="0.85" arrival="36.00" arrivalLane="KBJ_to_CMB_002_1" arrivalPos="146.55" arrivalPosLat="-0.70" arrivalSpeed="16.78" duration="26.00" routeLength="346.58" waitingTime="0.00" waitingCount="0" stopTime="0.00" timeLoss="3.77" rerouteNo="0" devices="tripinfo_0_5" vType="Car" speedFactor="1.03" vaporized=""/>
    <tripinfo id="0_11" depart="16.00" departLane="MRT_to_KB_003_1" departPos="2.10" departPosLat="0.00" departSpeed="0.00" departDelay="0.50" arrival="37.00" arrivalLane="KBJ_to_CMB_001_2" arrivalPos="57.78" arrivalPosLat="0.00" arrivalSpeed="15.84" duration="21.00" routeLength="234.19" waitingTime="0.00" waitingCount="0" stopTime="0.00" timeLoss="4.61" rerouteNo="0" devices="tripinfo_0_11" vType="Motor_Cycle" speedFactor="1.01" vaporized=""/>
    <tripinfo id="0_7" depart="12.00" departLane="CMB_to_KBJ_002_2" departPos="5.40" departPosLat="0.00" departSpeed="0.00" departDelay="0.80" arrival="38.00" arrivalLane="KB_to_MRT_002_1" arrivalPos="130.27" arrivalPosLat="0.55" arrivalSpeed="15.41" duration="26.00" routeLength="291.86" waitingTime="0.00" waitingCount="0" stopTime="0.00" timeLoss="6.82" rerouteNo="0" devices="tripinfo_0_7" vType="Van" speedFactor="0.95" vaporized=""/>
    <tripinfo id="0_10" depart="14.00" departLane="MRT_to_KB_003_2" departPos="5.40" departPosLat="0.00" departSpeed="0.00" departDelay="0.20" arrival="38.00" arrivalLane="KBJ_to_CMB_001_3" arrivalPos="57.78" arrivalPosLat="0.45" arrivalSpeed="12.77" duration="24.00" routeLength="230.89" waitingTime="0.00" waitingCount="0" stopTime="0.00" timeLoss="3.72" rerouteNo="0" devices="tripinfo_0_10" vType="Van" speedFactor="0.78" vaporized=""/>
    <tripinfo id="0_4" depart="8.00" departLane="MRT_to_KB_003_2" departPos="2.10" departPosLat="0.00" departSpeed="0.00" departDelay="0.05" arrival="42.00" arrivalLane="KBJ_to_CMB_002_1" arrivalPos="146.55" arrivalPosLat="0.30" arrivalSpeed="16.13" duration="34.00" routeLength="399.35" waitingTime="0.00" waitingCount="0" stopTime="0.00" timeLoss="9.19" rerouteNo="0" devices="tripinfo_0_4" vType="Motor_Cycle" speedFactor="1.07" vaporized=""/>
    <tripinfo id="0_6" depart="11.00" departLane="MRT_to_KB_001_3" departPos="4.30" departPosLat="0.00" departSpeed="0.00" departDelay="0.22" arrival="42.00" arrivalLane="KBJ_to_CMB_002_2" arrivalPos="146.55" arrivalPosLat="-0.45" arrivalSpeed="13.15" duration="31.00" routeLength="346.58" waitingTime="0.00" waitingCount="0" stopTime="0.00" timeLoss="3.77" rerouteNo="0" devices="tripinfo_0_6" vType="Car" speedFactor="0.81" vaporized=""/>
    <tripinfo id="0_9" depart="14.00" departLane="CMB_to_KBJ_001_2" departPos="2.10" departPosLat="0.00" departSpeed="0.00" departDelay="0.41" arrival="42.00" arrivalLane="30093400_1" arrivalPos="127.33" arrivalPosLat="0.00" arrivalSpeed="9.11" duration="28.00" routeLength="244.26" waitingTime="0.00" waitingCount="0" stopTime="0.00" timeLoss="6.41" rerouteNo="0" devices="tripinfo_0_9" vType="Motor_Cycle" speedFactor="1.09" vaporized=""/>
    <tripinfo id="0_0" depart="5.00" departLane="MRT_to_KB_003_1" departPos="2.10" departPosLat="0.00" departSpeed="0.00" departDelay="0.68" arrival="44.00" arrivalLane="KBJ_to_CMB_002_2" arrivalPos="146.55" arrivalPosLat="1.05" arrivalSpeed="13.01" duration="39.00" routeLength="399.35" waitingTime="0.00" waitingCount="0" stopTime="0.00" timeLoss="8.54" rerouteNo="0" devices="tripinfo_0_0" vType="Motor_Cycle" speedFactor="0.86" vaporized=""/>
    <tripinfo id="0_17" depart="30.00" departLane="MRT_to_KB_003_1" departPos="5.40" departPosLat="0.00" departSpeed="0.00" departDelay="0.65" arrival="52.00" arrivalLane="KBJ_to_CMB_001_3" arrivalPos="57.78" arrivalPosLat="-0.45" arrivalSpeed="15.14" duration="22.00" routeLength="230.89" waitingTime="0.00" waitingCount="0" stopTime="0.00" timeLoss="4.09" rerouteNo="0" devices="tripinfo_0_17" vType="Van" speedFactor="0.92" vaporized=""/>
    <tripinfo id="0_16" depart="30.00" departLane="MRT_to_KB_001.37_3" departPos="6.35" departPosLat="0.00" departSpeed="0.00" departDelay="0.85" arrival="56.00" arrivalLane="KBJ_to_CMB_002_2" arrivalPos="146.55" arrivalPosLat="-0.32" arrivalSpeed="13.74" duration="26.00" routeLength="295.74" waitingTime="0.00" waitingCount="0" stopTime="0.00" timeLoss="4.37" rerouteNo="0" devices="tripinfo_0_16" vType="Goods_Vehicle" speedFactor="1.07" vaporized=""/>
    <tripinfo id="0_12" depart="22.00" departLane="MRT_to_KB_003_1" departPos="5.40" departPosLat="0.00" departSpeed="0.00" departDelay="0.83" arrival="58.00" arrivalLane="KBJ_to_CMB_002_2" arrivalPos="146.55" arrivalPosLat="-0.45" arrivalSpeed="14.52" duration="36.00" routeLength="396.05" waitingTime="0.00" waitingCount="0" stopTime="0.00" timeLoss="6.35" rerouteNo="0" devices="tripinfo_0_12" vType="Van" speedFactor="0.88" vaporized=""/>
    <tripinfo id="0_14" depart="26.00" departLane="MRT_to_KB_001_2" departPos="4.30" departPosLat="0.00" departSpeed="0.00" departDelay="0.40" arrival="58.00" arrivalLane="KBJ_to_CMB_002_1" arrivalPos="146.55" arrivalPosLat="-0.70" arrivalSpeed="12.41" duration="32.00" routeLength="346.58" waitingTime="0.00" waitingCount="0" stopTime="0.00" timeLoss="3.73" rerouteNo="0" devices="tripinfo_0_14" vType="Car" speedFactor="0.78" vaporized=""/>
    <tripinfo id="0_18" depart="35.00" departLane="MRT_to_KB_001.37_4" departPos="2.65" departPosLat="0.00" departSpeed="0.00" departDelay="0.18" arrival="59.00" arrivalLane="KBJ_to_CMB_002_3" arrivalPos="146.55" arrivalPosLat="0.00" arrivalSpeed="16.18" duration="24.00" routeLength="299.44" waitingTime="0.00" waitingCount="0" stopTime="0.00" timeLoss="5.08" rerouteNo="0" devices="tripinfo_0_18" vType="3_Wheeler" speedFactor="1.03" vaporized=""/>
    <tripinfo id="0_15" depart="30.00" departLane="MRT_to_KB_001_2" departPos="2.10" departPosLat="0.00" departSpeed="0.00" departDelay="1.81" arrival="60.00" arrivalLane="KBJ_to_CMB_002_1" arrivalPos="146.55" arrivalPosLat="0.00" arrivalSpeed="14.20" duration="30.00" routeLength="348.78" waitingTime="0.00" waitingCount="0" stopTime="0.00" timeLoss="4.17" rerouteNo="0" devices="tripinfo_0_15" vType="Motor_Cycle" speedFactor="0.88" vaporized=""/>
    <tripinfo id="0_20" depart="43.00" departLane="MRT_to_KB_003_2" departPos="5.40" departPosLat="0.00" departSpeed="0.00" departDelay="0.97" arrival="63.00" arrivalLane="KBJ_to_CMB_001_3" arrivalPos="57.78" arrivalPosLat="-0.45" arrivalSpeed="17.81" duration="20.00" routeLength="230.89" waitingTime="0.00" waitingCount="0" stopTime="0.00" timeLoss="4.86" rerouteNo="0" devices="tripinfo_0_20" vType="Van" speedFactor="1.10" vaporized=""/>
    <tripinfo id="0_25" depart="52.00" departLane="MRT_to_KB_001.37_2" departPos="2.65" departPosLat="0.00" departSpeed="0.00" departDelay="0.01" arrival="66.00" arrivalLane="KBJ_to_CMB_001_2" arrivalPos="57.78" arrivalPosLat="0.00" arrivalSpeed="13.53" duration="14.00" routeLength="134.28" waitingTime="0.00" waitingCount="0" stopTime="0.00" timeLoss="3.70" rerouteNo="0" devices="tripinfo_0_25" vType="3_Wheeler" speedFactor="0.86" vaporized=""/>
    <tripinfo id="0_26" depart="54.00" departLane="MRT_to_KB_001.37_4" departPos="2.10" departPosLat="0.00" departSpeed="0.00" departDelay="0.87" arrival="67.00" arrivalLane="KBJ_to_CMB_001_4" arrivalPos="57.78" arrivalPosLat="0.00" arrivalSpeed="14.18" duration="13.00" routeLength="134.83" waitingTime="0.00" waitingCount="0" stopTime="0.00" timeLoss="2.96" rerouteNo="0" devices="tripinfo_0_26" vType="Motor_Cycle" speedFactor="0.89" vaporized=""/>
    <tripinfo id="0_19" depart="39.00" departLane="MRT_to_KB_003_1" departPos="2.10" departPosLat="0.00" departSpeed="0.00" departDelay="0.88" arrival="69.00" arrivalLane="KBJ_to_CMB_002_2" arrivalPos="146.55" arrivalPosLat="-0.25" arrivalSpeed="17.48" duration="30.00" routeLength="399.35" waitingTime="0.00" waitingCount="0" stopTime="0.00" timeLoss="4.76" rerouteNo="0" devices="tripinfo_0_19" vType="Motor_Cycle" speedFactor="1.05" vaporized=""/>
    <tripinfo id="0_2" depart="8.00" departLane="MRT_to_KB_001_4" departPos="4.30" departPosLat="0.00" departSpeed="0.00" departDelay="0.71" arrival="81.00" arrivalLane="KBJ_to_P_2" arrivalPos="128.65" arrivalPosLat="-0.70" arrivalSpeed="12.91" duration="73.00" routeLength="247.61" waitingTime="44.00" waitingCount="1" stopTime="0.00" timeLoss="54.40" rerouteNo="0" devices="tripinfo_0_2" vType="Car" speedFactor="0.98" vaporized=""/>
    <tripinfo id="0_24" depart="52.00" departLane="P_to_KBJ_1" departPos="2.10" departPosLat="0.00" departSpeed="0.00" departDelay="0.04" arrival="82.00" arrivalLane="KB_to_MRT_002_1" arrivalPos="130.27" arrivalPosLat="1.00" arrivalSpeed="13.79" duration="30.00" routeLength="338.14" waitingTime="0.00" waitingCount="0" stopTime="0.00" timeLoss="4.90" rerouteNo="0" devices="tripinfo_0_24" vType="Motor_Cycle" speedFactor="0.93" vaporized=""/>
    <tripinfo id="0_21" depart="47.00" departLane="MRT_to_KB_003_3" departPos="2.65" departPosLat="0.00" departSpeed="0.00" departDelay="0.07" arrival="84.00" arrivalLane="KBJ_to_P_2" arrivalPos="128.65" arrivalPosLat="0.00" arrivalSpeed="12.51" duration="37.00" routeLength="299.83" waitingTime="1.00" waitingCount="1" stopTime="0.00" timeLoss="13.05" rerouteNo="0" devices="tripinfo_0_21" vType="3_Wheeler" speedFactor="0.94" vaporized=""/>
    <tripinfo id="0_22" depart="49.00" departLane="P_to_KBJ_2" departPos="4.30" departPosLat="0.00" departSpeed="0.00" departDelay="0.12" arrival="117.00" arrivalLane="KBJ_to_CMB_002_3" arrivalPos="146.55" arrivalPosLat="-0.60" arrivalSpeed="15.26" duration="68.00" routeLength="388.81" waitingTime="31.00" waitingCount="1" stopTime="0.00" timeLoss="39.58" rerouteNo="0" devices="tripinfo_0_22" vType="Car" speedFactor="0.93" vaporized=""/>
    <tripinfo id="0_35" depart="89.00" departLane="MRT_to_KB_003_1" departPos="2.65" departPosLat="0.00" departSpeed="0.00" departDelay="0.92" arrival="139.00" arrivalLane="KBJ_to_CMB_001_2" arrivalPos="57.78" arrivalPosLat="-0.00" arrivalSpeed="15.84" duration="50.00" routeLength="233.64" waitingTime="23.00" waitingCount="1" stopTime="0.00" timeLoss="35.04" rerouteNo="0" devices="tripinfo_0_35" vType="3_Wheeler" speedFactor="1.08" vaporized=""/>
    <tripinfo id="0_38" depart="97.00" departLane="MRT_to_KB_003_2" departPos="2.10" departPosLat="0.00" departSpeed="0.00" departDelay="0.11" arrival="140.00" arrivalLane="KBJ_to_CMB_001_3" arrivalPos="57.78" arrivalPosLat="0.05" arrivalSpeed="13.63" duration="43.00" routeLength="234.19" waitingTime="14.00" waitingCount="1" stopTime="0.00" timeLoss="23.87" rerouteNo="0" devices="tripinfo_0_38" vType="Motor_Cycle" speedFactor="0.86" vaporized=""/>
    <tripinfo id="0_45" depart="113.00" departLane="MRT_to_KB_003_1" departPos="2.10" departPosLat="0.00" departSpeed="0.00" departDelay="0.33" arrival="141.00" arrivalLane="KBJ_to_CMB_001_2" arrivalPos="57.78" arrivalPosLat="1.20" arrivalSpeed="13.29" duration="28.00" routeLength="234.19" waitingTime="0.00" waitingCount="0" stopTime="0.00" timeLoss="9.57" rerouteNo="0" devices="tripinfo_0_45" vType="Motor_Cycle" speedFactor="0.88" vaporized=""/>
    <tripinfo id="0_29" depart="75.00" departLane="MRT_to_KB_001.37_4" departPos="2.10" departPosLat="0.00" departSpeed="0.00" departDelay="0.68" arrival="147.00" arrivalLane="KBJ_to_CMB_002_3" arrivalPos="146.55" arrivalPosLat="1.00" arrivalSpeed="17.87" duration="72.00" routeLength="299.99" waitingTime="44.00" waitingCount="1" stopTime="0.00" timeLoss="54.01" rerouteNo="0" devices="tripinfo_0_29" vType="Motor_Cycle" speedFactor="1.09" vaporized=""/>
    <tripinfo id="0_34" depart="86.00" departLane="MRT_to_KB_001_3" departPos="2.10" departPosLat="0.00" departSpeed="0.00" departDelay="0.04" arrival="147.00" arrivalLane="KBJ_to_CMB_002_2" arrivalPos="146.55" arrivalPosLat="1.35" arrivalSpeed="15.19" duration="61.00" routeLength="348.78" waitingTime="30.00" waitingCount="1" stopTime="0.00" timeLoss="38.36" rerouteNo="0" devices="tripinfo_0_34" vType="Motor_Cycle" speedFactor="1.00" vaporized=""/>
    <tripinfo id="0_39" depart="102.00" departLane="CMB_to_KBJ_001_4" departPos="2.10" departPosLat="0.00" departSpeed="0.00" departDelay="0.60" arrival="147.00" arrivalLane="KB_to_MRT_002_3" arrivalPos="130.27" arrivalPosLat="0.00" arrivalSpeed="14.58" duration="45.00" routeLength="252.04" waitingTime="18.00" waitingCount="1" stopTime="0.00" timeLoss="27.94" rerouteNo="0" devices="tripinfo_0_39" vType="Motor_Cycle" speedFactor="0.91" vaporized=""/>
    <tripinfo id="0_28" depart="66.00" departLane="MRT_to_KB_001.37_3" departPos="2.65" departPosLat="0.00" departSpeed="0.00" departDelay="1.25" arrival="149.00" arrivalLane="KBJ_to_CMB_002_2" arrivalPos="146.55" arrivalPosLat="-0.30" arrivalSpeed="16.07" duration="83.00" routeLength="299.44" waitingTime="52.00" waitingCount="1" stopTime="0.00" timeLoss="63.91" rerouteNo="0" devices="tripinfo_0_28" vType="3_Wheeler" speedFactor="1.11" vaporized=""/>
    <tripinfo id="0_32" depart="84.00" departLane="MRT_to_KB_001_2" departPos="5.40" departPosLat="0.00" departSpeed="0.00" departDelay="0.02" arrival="149.00" arrivalLane="KBJ_to_CMB_002_3" arrivalPos="146.55" arrivalPosLat="-0.60" arrivalSpeed="18.93" duration="65.00" routeLength="345.48" waitingTime="29.00" waitingCount="2" stopTime="0.00" timeLoss="45.80" rerouteNo="0" devices="tripinfo_0_32" vType="Van" speedFactor="1.19" vaporized=""/>
    <tripinfo id="0_33" depart="85.00" departLane="MRT_to_KB_001.37_3" departPos="2.10" departPosLat="0.00" departSpeed="0.00" departDelay="0.77" arrival="150.00" arrivalLane="KBJ_to_CMB_002_2" arrivalPos="146.55" arrivalPosLat="-1.05" arrivalSpeed="12.38" duration="65.00" routeLength="299.99" waitingTime="33.00" waitingCount="1" stopTime="0.00" timeLoss="45.57" rerouteNo="0" devices="tripinfo_0_33" vType="Motor_Cycle" speedFactor="0.97" vaporized=""/>
    <tripinfo id="0_42" depart="109.00" departLane="MRT_to_KB_001.37_2" departPos="2.65" departPosLat="0.00" departSpeed="0.00" departDelay="0.94" arrival="152.00" arrivalLane="KBJ_to_CMB_002_3" arrivalPos="146.55" arrivalPosLat="-0.90" arrivalSpeed="15.99" duration="43.00" routeLength="299.44" waitingTime="11.00" waitingCount="1" stopTime="0.00" timeLoss="23.77" rerouteNo="0" devices="tripinfo_0_42" vType="3_Wheeler" speedFactor="1.00" vaporized=""/>
    <tripinfo id="0_41" depart="108.00" departLane="MRT_to_KB_003_1" departPos="4.30" departPosLat="0.00" departSpeed="0.00" departDelay="0.15" arrival="153.00" arrivalLane="KBJ_to_CMB_002_3" arrivalPos="146.55" arrivalPosLat="-1.20" arrivalSpeed="16.98" duration="45.00" routeLength="397.15" waitingTime="8.00" waitingCount="1" stopTime="0.00" timeLoss="20.17" rerouteNo="0" devices="tripinfo_0_41" vType="Car" speedFactor="1.04" vaporized=""/>
    <tripinfo id="0_47" depart="116.00" departLane="MRT_to_KB_003_2" departPos="4.30" departPosLat="0.00" departSpeed="0.00" departDelay="0.17" arrival="155.00" arrivalLane="KBJ_to_CMB_002_2" arrivalPos="146.55" arrivalPosLat="-0.45" arrivalSpeed="18.24" duration="39.00" routeLength="397.15" waitingTime="0.00" waitingCount="0" stopTime="0.00" timeLoss="15.67" rerouteNo="0" devices="tripinfo_0_47" vType="Car" speedFactor="1.12" vaporized=""/>
    <tripinfo id="0_13" depart="24.00" departLane="CMB_to_KBJ_003_2" departPos="2.10" departPosLat="0.00" departSpeed="0.00" departDelay="0.46" arrival="156.00" arrivalLane="30093400_1" arrivalPos="127.33" arrivalPosLat="0.00" arrivalSpeed="7.97" duration="132.00" routeLength="437.99" waitingTime="81.00" waitingCount="1" stopTime="0.00" timeLoss="95.49" rerouteNo="0" devices="tripinfo_0_13" vType="Motor_Cycle" speedFactor="0.97" vaporized=""/>
    <tripinfo id="0_40" depart="109.00" departLane="MRT_to_KB_001.37_4" departPos="2.65" departPosLat="0.00" departSpeed="0.00" departDelay="2.21" arrival="156.00" arrivalLane="KBJ_to_CMB_002_3" arrivalPos="146.55" arrivalPosLat="0.30" arrivalSpeed="11.51" duration="47.00" routeLength="299.44" waitingTime="12.00" waitingCount="1" stopTime="0.00" timeLoss="21.51" rerouteNo="0" devices="tripinfo_0_40" vType="3_Wheeler" speedFactor="0.74" vaporized=""/>
    <tripinfo id="0_58" depart="143.00" departLane="MRT_to_KB_001.37_2" departPos="2.10" departPosLat="0.00" departSpeed="0.00" departDelay="0.75" arrival="156.00" arrivalLane="KBJ_to_CMB_001_2" arrivalPos="57.78" arrivalPosLat="0.00" arrivalSpeed="16.96" duration="13.00" routeLength="134.83" waitingTime="0.00" waitingCount="0" stopTime="0.00" timeLoss="4.46" rerouteNo="0" devices="tripinfo_0_58" vType="Motor_Cycle" speedFactor="1.08" vaporized=""/>
    <tripinfo id="0_46" depart="118.00" departLane="MRT_to_KB_001.37_2" departPos="2.65" departPosLat="0.00" departSpeed="0.00" departDelay="2.47" arrival="157.00" arrivalLane="KBJ_to_CMB_002_3" arrivalPos="146.55" arrivalPosLat="-0.10" arrivalSpeed="13.79" duration="39.00" routeLength="299.44" waitingTime="4.00" waitingCount="2" stopTime="0.00" timeLoss="20.60" rerouteNo="0" devices="tripinfo_0_46" vType="3_Wheeler" speedFactor="1.08" vaporized=""/>
    <tripinfo id="0_23" depart="51.00" departLane="CMB_to_KBJ_001_2" departPos="4.30" departPosLat="0.00" departSpeed="0.00" departDelay="0.15" arrival="159.00" arrivalLane="30093400_1" arrivalPos="127.33" arrivalPosLat="-0.55" arrivalSpeed="7.99" duration="108.00" routeLength="242.06" waitingTime="71.00" waitingCount="1" stopTime="0.00" timeLoss="86.27" rerouteNo="0" devices="tripinfo_0_23" vType="Car" speedFactor="1.07" vaporized=""/>
    <tripinfo id="0_48" depart="117.00" departLane="MRT_to_KB_001_2" departPos="4.30" departPosLat="0.00" departSpeed="0.00" departDelay="0.55" arrival="159.00" arrivalLane="KBJ_to_CMB_002_3" arrivalPos="146.55" arrivalPosLat="-0.60" arrivalSpeed="15.40" duration="42.00" routeLength="346.58" waitingTime="0.00" waitingCount="0" stopTime="0.00" timeLoss="20.90" rerouteNo="0" devices="tripinfo_0_48" vType="Car" speedFactor="1.08" vaporized=""/>
    <tripinfo id="0_55" depart="138.00" departLane="MRT_to_KB_001.37_4" departPos="2.10" departPosLat="0.00" departSpeed="0.00" departDelay="0.52" arrival="160.00" arrivalLane="KBJ_to_CMB_002_3" arrivalPos="146.55" arrivalPosLat="0.00" arrivalSpeed="16.89" duration="22.00" routeLength="299.99" waitingTime="0.00" waitingCount="0" stopTime="0.00" timeLoss="6.34" rerouteNo="0" devices="tripinfo_0_55" vType="Motor_Cycle" speedFactor="1.20" vaporized=""/>
    <tripinfo id="0_30" depart="76.00" departLane="CMB_to_KBJ_003_2" departPos="6.35" departPosLat="0.00" departSpeed="0.00" departDelay="0.93" arrival="162.00" arrivalLane="30093400_1" arrivalPos="127.33" arrivalPosLat="-0.42" arrivalSpeed="8.41" duration="86.00" routeLength="433.74" waitingTime="32.00" waitingCount="1" stopTime="0.00" timeLoss="47.34" rerouteNo="0" devices="tripinfo_0_30" vType="Goods_Vehicle" speedFactor="1.03" vaporized=""/>
    <tripinfo id="0_27" depart="59.00" departLane="MRT_to_KB_001_2" departPos="4.30" departPosLat="0.00" departSpeed="0.00" departDelay="0.43" arrival="163.00" arrivalLane="KBJ_to_CMB_002_2" arrivalPos="146.55" arrivalPosLat="-0.45" arrivalSpeed="11.65" duration="104.00" routeLength="346.58" waitingTime="62.00" waitingCount="2" stopTime="0.00" timeLoss="78.21" rerouteNo="0" devices="tripinfo_0_27" vType="Car" speedFactor="0.88" vaporized=""/>
    <tripinfo id="0_50" depart="123.00" departLane="CMB_to_KBJ_002_2" departPos="2.10" departPosLat="0.00" departSpeed="0.00" departDelay="0.31" arrival="163.00" arrivalLane="30093400_1" arrivalPos="127.33" arrivalPosLat="-1.15" arrivalSpeed="9.09" duration="40.00" routeLength="287.38" waitingTime="0.00" waitingCount="0" stopTime="0.00" timeLoss="18.68" rerouteNo="0" devices="tripinfo_0_50" vType="Motor_Cycle" speedFactor="1.20" vaporized=""/>
    <tripinfo id="0_31" depart="82.00" departLane="CMB_to_KBJ_003_2" departPos="4.30" departPosLat="0.00" departSpeed="0.00" departDelay="0.75" arrival="164.00" arrivalLane="30093400_1" arrivalPos="127.33" arrivalPosLat="-0.35" arrivalSpeed="8.15" duration="82.00" routeLength="435.79" waitingTime="31.00" waitingCount="1" stopTime="0.00" timeLoss="50.06" rerouteNo="0" devices="tripinfo_0_31" vType="Car" speedFactor="1.09" vaporized=""/>
    <tripinfo id="0_37" depart="96.00" departLane="MRT_to_KB_003_1" departPos="4.30" departPosLat="0.00" departSpeed="0.00" departDelay="0.92" arrival="164.00" arrivalLane="KBJ_to_CMB_002_3" arrivalPos="146.55" arrivalPosLat="-0.60" arrivalSpeed="11.70" duration="68.00" routeLength="397.15" waitingTime="24.00" waitingCount="2" stopTime="0.00" timeLoss="43.63" rerouteNo="0" devices="tripinfo_0_37" vType="Car" speedFactor="1.06" vaporized=""/>
    <tripinfo id="0_62" depart="151.00" departLane="MRT_to_KB_001.37_2" departPos="2.65" departPosLat="0.00" departSpeed="0.00" departDelay="0.21" arrival="165.00" arrivalLane="KBJ_to_CMB_001_2" arrivalPos="57.78" arrivalPosLat="-0.00" arrivalSpeed="16.56" duration="14.00" routeLength="134.28" waitingTime="0.00" waitingCount="0" stopTime="0.00" timeLoss="5.43" rerouteNo="0" devices="tripinfo_0_62" vType="3_Wheeler" speedFactor="1.21" vaporized=""/>
    <tripinfo id="0_53" depart="131.00" departLane="CMB_to_KBJ_001_2" departPos="2.10" departPosLat="0.00" departSpeed="0.00" departDelay="0.84" arrival="169.00" arrivalLane="30093400_1" arrivalPos="127.33" arrivalPosLat="1.15" arrivalSpeed="7.99" duration="38.00" routeLength="244.26" waitingTime="1.00" waitingCount="1" stopTime="0.00" timeLoss="13.99" rerouteNo="0" devices="tripinfo_0_53" vType="Motor_Cycle" speedFactor="0.98" vaporized=""/>
    <tripinfo id="0_49" depart="120.00" departLane="MRT_to_KB_001_3" departPos="2.65" departPosLat="0.00" departSpeed="0.00" departDelay="0.45" arrival="170.00" arrivalLane="KBJ_to_CMB_002_2" arrivalPos="146.55" arrivalPosLat="0.75" arrivalSpeed="9.83" duration="50.00" routeLength="348.23" waitingTime="1.00" waitingCount="1" stopTime="0.00" timeLoss="27.64" rerouteNo="0" devices="tripinfo_0_49" vType="3_Wheeler" speedFactor="1.02" vaporized=""/>
    <tripinfo id="0_51" depart="126.00" departLane="MRT_to_KB_003_1" departPos="4.30" departPosLat="0.00" departSpeed="0.00" departDelay="0.12" arrival="171.00" arrivalLane="KBJ_to_CMB_002_3" arrivalPos="146.55" arrivalPosLat="-0.60" arrivalSpeed="13.06" duration="45.00" routeLength="397.15" waitingTime="0.00" waitingCount="0" stopTime="0.00" timeLoss="20.01" rerouteNo="0" devices="tripinfo_0_51" vType="Car" speedFactor="1.05" vaporized=""/>
    <tripinfo id="0_52" depart="129.00" departLane="MRT_to_KB_001_2" departPos="2.10" departPosLat="0.00" departSpeed="0.00" departDelay="0.54" arrival="171.00" arrivalLane="KBJ_to_CMB_002_2" arrivalPos="146.55" arrivalPosLat="-0.05" arrivalSpeed="14.15" duration="42.00" routeLength="348.78" waitingTime="1.00" waitingCount="1" stopTime="0.00" timeLoss="18.24" rerouteNo="0" devices="tripinfo_0_52" vType="Motor_Cycle" speedFactor="0.96" vaporized=""/>
    <tripinfo id="0_59" depart="148.00" departLane="MRT_to_KB_001.37_3" departPos="2.10" departPosLat="0.00" departSpeed="0.00" departDelay="0.52" arrival="172.00" arrivalLane="KBJ_to_CMB_002_2" arrivalPos="146.55" arrivalPosLat="1.25" arrivalSpeed="14.27" duration="24.00" routeLength="299.99" waitingTime="0.00" waitingCount="0" stopTime="0.00" timeLoss="4.00" rerouteNo="0" devices="tripinfo_0_59" vType="Motor_Cycle" speedFactor="0.94" vaporized=""/>
    <tripinfo id="0_60" depart="148.00" departLane="MRT_to_KB_001.37_4" departPos="2.10" departPosLat="0.00" departSpeed="0.00" departDelay="0.24" arrival="172.00" arrivalLane="KBJ_to_CMB_002_3" arrivalPos="146.55" arrivalPosLat="0.00" arrivalSpeed="14.32" duration="24.00" routeLength="299.99" waitingTime="0.00" waitingCount="0" stopTime="0.00" timeLoss="4.75" rerouteNo="0" devices="tripinfo_0_60" vType="Motor_Cycle" speedFactor="0.98" vaporized=""/>
    <tripinfo id="0_56" depart="140.00" departLane="MRT_to_KB_003_1" departPos="2.65" departPosLat="0.00" departSpeed="0.00" departDelay="0.32" arrival="174.00" arrivalLane="KBJ_to_CMB_002_2" arrivalPos="146.55" arrivalPosLat="1.25" arrivalSpeed="15.90" duration="34.00" routeLength="398.80" waitingTime="0.00" waitingCount="0" stopTime="0.00" timeLoss="7.55" rerouteNo="0" devices="tripinfo_0_56" vType="3_Wheeler" speedFactor="0.99" vaporized=""/>
    <tripinfo id="0_57" depart="143.00" departLane="MRT_to_KB_003_2" departPos="2.10" departPosLat="0.00" departSpeed="0.00" departDelay="0.96" arrival="176.00" arrivalLane="KBJ_to_CMB_002_2" arrivalPos="146.55" arrivalPosLat="0.15" arrivalSpeed="14.78" duration="33.00" routeLength="399.35" waitingTime="0.00" waitingCount="0" stopTime="0.00" timeLoss="3.97" rerouteNo="0" devices="tripinfo_0_57" vType="Motor_Cycle" speedFactor="0.89" vaporized=""/>
    <tripinfo id="0_64" depart="154.00" departLane="MRT_to_KB_003_1" departPos="2.65" departPosLat="0.00" departSpeed="0.00" departDelay="0.60" arrival="177.00" arrivalLane="KBJ_to_CMB_001_3" arrivalPos="57.78" arrivalPosLat="0.45" arrivalSpeed="16.24" duration="23.00" routeLength="233.64" waitingTime="0.00" waitingCount="0" stopTime="0.00" timeLoss="7.37" rerouteNo="0" devices="tripinfo_0_64" vType="3_Wheeler" speedFactor="1.03" vaporized=""/>
    <tripinfo id="0_63" depart="151.00" departLane="MRT_to_KB_001_2" departPos="4.30" departPosLat="0.00" departSpeed="0.00" departDelay="0.06" arrival="178.00" arrivalLane="KBJ_to_CMB_002_2" arrivalPos="146.55" arrivalPosLat="0.45" arrivalSpeed="17.95" duration="27.00" routeLength="346.58" waitingTime="0.00" waitingCount="0" stopTime="0.00" timeLoss="6.00" rerouteNo="0" devices="tripinfo_0_63" vType="Car" speedFactor="1.08" vaporized=""/>
    <tripinfo id="0_70" depart="165.00" departLane="MRT_to_KB_001.37_2" departPos="2.10" departPosLat="0.00" departSpeed="0.00" departDelay="2.21" arrival="178.00" arrivalLane="KBJ_to_CMB_001_2" arrivalPos="57.78" arrivalPosLat="0.90" arrivalSpeed="15.06" duration="13.00" routeLength="134.83" waitingTime="0.00" waitingCount="0" stopTime="0.00" timeLoss="3.52" rerouteNo="0" devices="tripinfo_0_70" vType="Motor_Cycle" speedFactor="0.94" vaporized=""/>
    <tripinfo id="0_69" depart="164.00" departLane="MRT_to_KB_001.37_4" departPos="2.65" departPosLat="0.00" departSpeed="0.00" departDelay="1.81" arrival="180.00" arrivalLane="KBJ_to_CMB_001_4" arrivalPos="57.78" arrivalPosLat="-0.10" arrivalSpeed="12.05" duration="16.00" routeLength="134.28" waitingTime="0.00" waitingCount="0" stopTime="0.00" timeLoss="3.82" rerouteNo="0" devices="tripinfo_0_69" vType="3_Wheeler" speedFactor="0.75" vaporized=""/>
    <tripinfo id="bus_100/101/400/412/418/428/430/433:1.0" depart="0.00" departLane="CMB_to_KBJ_003_1" departPos="12.10" departPosLat="0.00" departSpeed="0.00" departDelay="0.00" arrival="181.00" arrivalLane="KB_to_MRT_002_1" arrivalPos="130.27" arrivalPosLat="0.00" arrivalSpeed="13.60" duration="181.00" routeLength="435.77" waitingTime="57.00" waitingCount="2" stopTime="51.00" timeLoss="103.31" rerouteNo="0" devices="tripinfo_bus_100/101/400/412/418/428/430/433:1.0" vType="bus" speedFactor="1.00" vaporized=""/>