<?xml version="1.0" encoding="UTF-8"?>

<!-- generated on 2025-08-05 09:20:25 by Eclipse SUMO sumo Version 1.24.0
<sumoConfiguration xmlns:xsi="http://www.w3.org/2001/XMLSchema-instance" xsi:noNamespaceSchemaLocation="http://sumo.dlr.de/xsd/sumoConfiguration.xsd">

    <input>
        <net-file value="network/katubedda_junction_network.net.xml"/>
        <route-files value="demand/calibrated_demand_warmup.rou.xml,                             demand/calibrated_demand_6am_7am.rou.xml,                             demand/bus_demand.rou.xml"/>
        <additional-files value="additionals/traffic_lights_static.ttl.xml,                                  additionals/bus/bus_stops.add.xml,                                 additionals/vtype_dist_base.xml"/>
    </input>

    <output>
        <output-prefix value="49143."/>
        <queue-output value="outputs/static_vehicle_data/static_vehicle_data.xml"/>
        <queue-output.period value="300"/>
        <tripinfo-output value="outputs/static_vehicle_data/tripinfo_static_vehicle_data.xml"/>
    </output>

    <processing>
        <lateral-resolution value="1.2"/>
        <collision.action value="none"/>
    </processing>

    <random_number>
        <seed value="49143"/>
    </random_number>

    <gui_only>
        <gui-settings-file value="additionals/satelite_image_bg.xml"/>
    </gui_only>

</sumoConfiguration>
-->

<tripinfos xmlns:xsi="http://www.w3.org/2001/XMLSchema-instance" xsi:noNamespaceSchemaLocation="http://sumo.dlr.de/xsd/tripinfo_file.xsd">
    <tripinfo id="0_3" depart="8.00" departLane="CMB_to_KBJ_003_2" departPos="2.10" departPosLat="0.00" departSpeed="0.00" departDelay="0.39" arrival="31.00" arrivalLane="KB_to_MRT_001_1" arrivalPos="44.82" arrivalPosLat="0.00" arrivalSpeed="16.27" duration="23.00" routeLength="301.72" waitingTime="0.00" waitingCount="0" stopTime="0.00" timeLoss="4.39" rerouteNo="0" devices="tripinfo_0_3" vType="Motor_Cycle" speedFactor="1.02" vaporized=""/>
    <tripinfo id="0_1" depart="5.00" departLane="MRT_to_KB_001_2" departPos="4.30" departPosLat="0.00" departSpeed="0.00" departDelay="0.36" arrival="32.00" arrivalLane="KBJ_to_CMB_002_1" arrivalPos="146.55" arrivalPosLat="0.50" arrivalSpeed="15.83" duration="27.00" routeLength="346.58" waitingTime="0.00" waitingCount="0" stopTime="0.00" timeLoss="3.64" rerouteNo="0" devices="tripinfo_0_1" vType="Car" speedFactor="0.95" vaporized=""/>
    <tripinfo id="0_8" depart="13.00" departLane="MRT_to_KB_003_1" departPos="2.10" departPosLat="0.00" departSpeed="0.00" departDelay="0.78" arrival="34.00" arrivalLane="KBJ_to_CMB_001_2" arrivalPos="57.78" arrivalPosLat="1.00" arrivalSpeed="14.10" duration="21.00" routeLength="234.19" waitingTime="0.00" waitingCount="0" stopTime="0.00" timeLoss="3.88" rerouteNo="0" devices="tripinfo_0_8" vType="Motor_Cycle" speedFactor="0.94" vaporized=""/>
    <tripinfo id="0_5" depart="10.00" departLane="MRT_to_KB_001_2" departPos="4.30" departPosLat="0.00" departSpeed="0.00" departDelay="0.85" arrival="36.00" arrivalLane="KBJ_to_CMB_002_1" arrivalPos="146.55" arrivalPosLat="-0.70" arrivalSpeed="16.78" duration="26.00" routeLength="346.58" waitingTime="0.00" waitingCount="0" stopTime="0.00" timeLoss="3.77" rerouteNo="0" devices="tripinfo_0_5" vType="Car" speedFactor="1.03" vaporized=""/>
    <tripinfo id="0_11" depart="16.00" departLane="MRT_to_KB_003_1" departPos="2.10" departPosLat="0.00" departSpeed="0.00" departDelay="0.50" arrival="37.00" arrivalLane="KBJ_to_CMB_001_2" arrivalPos="57.78" arrivalPosLat="0.00" arrivalSpeed="15.84" duration="21.00" routeLength="234.19" waitingTime="0.00" waitingCount="0" stopTime="0.00" timeLoss="4.61" rerouteNo="0" devices="tripinfo_0_11" vType="Motor_Cycle" speedFactor="1.01" vaporized=""/>
    <tripinfo id="0_7" depart="12.00" departLane="CMB_to_KBJ_002_2" departPos="5.40" departPosLat="0.00" departSpeed="0.00" departDelay="0.80" arrival="38.00" arrivalLane="KB_to_MRT_002_1" arrivalPos="130.27" arrivalPosLat="0.55" arrivalSpeed="15.41" duration="26.00" routeLength="291.86" waitingTime="0.00" waitingCount="0" stopTime="0.00" timeLoss="6.82" rerouteNo="0" devices="tripinfo_0_7" vType="Van" speedFactor="0.95" vaporized=""/>
    <tripinfo id="0_10" depart="14.00" departLane="MRT_to_KB_003_2" departPos="5.40" departPosLat="0.00" departSpeed="0.00" departDelay="0.20" arrival="38.00" arrivalLane="KBJ_to_CMB_001_3" arrivalPos="57.78" arrivalPosLat="0.45" arrivalSpeed="12.77" duration="24.00" routeLength="230.89" waitingTime="0.00" waitingCount="0" stopTime="0.00" timeLoss="3.72" rerouteNo="0" devices="tripinfo_0_10" vType="Van" speedFactor="0.78" vaporized=""/>
    <tripinfo id="0_4" depart="8.00" departLane="MRT_to_KB_003_2" departPos="2.10" departPosLat="0.00" departSpeed="0.00" departDelay="0.05" arrival="42.00" arrivalLane="KBJ_to_CMB_002_1" arrivalPos="146.55" arrivalPosLat="0.30" arrivalSpeed="16.13" duration="34.00" routeLength="399.35" waitingTime="0.00" waitingCount="0" stopTime="0.00" timeLoss="9.19" rerouteNo="0" devices="tripinfo_0_4" vType="Motor_Cycle" speedFactor="1.07" vaporized=""/>
    <tripinfo id="0_6" depart="11.00" departLane="MRT_to_KB_001_3" departPos="4.30" departPosLat="0.00" departSpeed="0.00" departDelay="0.22" arrival="42.00" arrivalLane="KBJ_to_CMB_002_2" arrivalPos="146.55" arrivalPosLat="-0.45" arrivalSpeed="13.15" duration="31.00" routeLength="346.58" waitingTime="0.00" waitingCount="0" stopTime="0.00" timeLoss="3.77" rerouteNo="0" devices="tripinfo_0_6" vType="Car" speedFactor="0.81" vaporized=""/>
    <tripinfo id="0_9" depart="14.00" departLane="CMB_to_KBJ_001_2" departPos="2.10" departPosLat="0.00" departSpeed="0.00" departDelay="0.41" arrival="42.00" arrivalLane="30093400_1" arrivalPos="127.33" arrivalPosLat="0.00" arrivalSpeed="9.11" duration="28.00" routeLength="244.26" waitingTime="0.00" waitingCount="0" stopTime="0.00" timeLoss="6.41" rerouteNo="0" devices="tripinfo_0_9" vType="Motor_Cycle" speedFactor="1.09" vaporized=""/>
    <tripinfo id="0_0" depart="5.00" departLane="MRT_to_KB_003_1" departPos="2.10" departPosLat="0.00" departSpeed="0.00" departDelay="0.68" arrival="44.00" arrivalLane="KBJ_to_CMB_002_2" arrivalPos="146.55" arrivalPosLat="1.05" arrivalSpeed="13.01" duration="39.00" routeLength="399.35" waitingTime="0.00" waitingCount="0" stopTime="0.00" timeLoss="8.54" rerouteNo="0" devices="tripinfo_0_0" vType="Motor_Cycle" speedFactor="0.86" vaporized=""/>
    <tripinfo id="0_17" depart="30.00" departLane="MRT_to_KB_003_1" departPos="5.40" departPosLat="0.00" departSpeed="0.00" departDelay="0.65" arrival="52.00" arrivalLane="KBJ_to_CMB_001_3" arrivalPos="57.78" arrivalPosLat="-0.45" arrivalSpeed="15.14" duration="22.00" routeLength="230.89" waitingTime="0.00" waitingCount="0" stopTime="0.00" timeLoss="4.09" rerouteNo="0" devices="tripinfo_0_17" vType="Van" speedFactor="0.92" vaporized=""/>
    <tripinfo id="0_16" depart="30.00" departLane="MRT_to_KB_001.37_3" departPos="6.35" departPosLat="0.00" departSpeed="0.00" departDelay="0.85" arrival="56.00" arrivalLane="KBJ_to_CMB_002_2" arrivalPos="146.55" arrivalPosLat="-0.32" arrivalSpeed="13.74" duration="26.00" routeLength="295.74" waitingTime="0.00" waitingCount="0" stopTime="0.00" timeLoss="4.37" rerouteNo="0" devices="tripinfo_0_16" vType="Goods_Vehicle" speedFactor="1.07" vaporized=""/>
    <tripinfo id="0_12" depart="22.00" departLane="MRT_to_KB_003_1" departPos="5.40" departPosLat="0.00" departSpeed="0.00" departDelay="0.83" arrival="58.00" arrivalLane="KBJ_to_CMB_002_2" arrivalPos="146.55" arrivalPosLat="-0.45" arrivalSpeed="14.52" duration="36.00" routeLength="396.05" waitingTime="0.00" waitingCount="0" stopTime="0.00" timeLoss="6.35" rerouteNo="0" devices="tripinfo_0_12" vType="Van" speedFactor="0.88" vaporized=""/>
    <tripinfo id="0_14" depart="26.00" departLane="MRT_to_KB_001_2" departPos="4.30" departPosLat="0.00" departSpeed="0.00" departDelay="0.40" arrival="58.00" arrivalLane="KBJ_to_CMB_002_1" arrivalPos="146.55" arrivalPosLat="-0.70" arrivalSpeed="12.41" duration="32.00" routeLength="346.58" waitingTime="0.00" waitingCount="0" stopTime="0.00" timeLoss="3.73" rerouteNo="0" devices="tripinfo_0_14" vType="Car" speedFactor="0.78" vaporized=""/>
    <tripinfo id="0_18" depart="35.00" departLane="MRT_to_KB_001.37_4" departPos="2.65" departPosLat="0.00" departSpeed="0.00" departDelay="0.18" arrival="59.00" arrivalLane="KBJ_to_CMB_002_3" arrivalPos="146.55" arrivalPosLat="0.00" arrivalSpeed="16.18" duration="24.00" routeLength="299.44" waitingTime="0.00" waitingCount="0" stopTime="0.00" timeLoss="5.08" rerouteNo="0" devices="tripinfo_0_18" vType="3_Wheeler" speedFactor="1.03" vaporized=""/>
    <tripinfo id="0_15" depart="30.00" departLane="MRT_to_KB_001_2" departPos="2.10" departPosLat="0.00" departSpeed="0.00" departDelay="1.81" arrival="60.00" arrivalLane="KBJ_to_CMB_002_1" arrivalPos="146.55" arrivalPosLat="0.00" arrivalSpeed="14.20" duration="30.00" routeLength="348.78" waitingTime="0.00" waitingCount="0" stopTime="0.00" timeLoss="4.17" rerouteNo="0" devices="tripinfo_0_15" vType="Motor_Cycle" speedFactor="0.88" vaporized=""/>
    <tripinfo id="0_20" depart="43.00" departLane="MRT_to_KB_003_2" departPos="5.40" departPosLat="0.00" departSpeed="0.00" departDelay="0.97" arrival="63.00" arrivalLane="KBJ_to_CMB_001_3" arrivalPos="57.78" arrivalPosLat="-0.45" arrivalSpeed="17.81" duration="20.00" routeLength="230.89" waitingTime="0.00" waitingCount="0" stopTime="0.00" timeLoss="4.86" rerouteNo="0" devices="tripinfo_0_20" vType="Van" speedFactor="1.10" vaporized=""/>
    <tripinfo id="0_25" depart="52.00" departLane="MRT_to_KB_001.37_2" departPos="2.65" departPosLat="0.00" departSpeed="0.00" departDelay="0.01" arrival="66.00" arrivalLane="KBJ_to_CMB_001_2" arrivalPos="57.78" arrivalPosLat="0.00" arrivalSpeed="13.53" duration="14.00" routeLength="134.28" waitingTime="0.00" waitingCount="0" stopTime="0.00" timeLoss="3.70" rerouteNo="0" devices="tripinfo_0_25" vType="3_Wheeler" speedFactor="0.86" vaporized=""/>
    <tripinfo id="0_26" depart="54.00" departLane="MRT_to_KB_001.37_4" departPos="2.10" departPosLat="0.00" departSpeed="0.00" departDelay="0.87" arrival="67.00" arrivalLane="KBJ_to_CMB_001_4" arrivalPos="57.78" arrivalPosLat="0.00" arrivalSpeed="14.18" duration="13.00" routeLength="134.83" waitingTime="0.00" waitingCount="0" stopTime="0.00" timeLoss="2.96" rerouteNo="0" devices="tripinfo_0_26" vType="Motor_Cycle" speedFactor="0.89" vaporized=""/>
    <tripinfo id="0_13" depart="24.00" departLane="CMB_to_KBJ_003_2" departPos="2.10" departPosLat="0.00" departSpeed="0.00" departDelay="0.46" arrival="68.00" arrivalLane="30093400_1" arrivalPos="127.33" arrivalPosLat="0.00" arrivalSpeed="7.42" duration="44.00" routeLength="437.99" waitingTime="0.00" waitingCount="0" stopTime="0.00" timeLoss="7.72" rerouteNo="0" devices="tripinfo_0_13" vType="Motor_Cycle" speedFactor="0.97" vaporized=""/>
    <tripinfo id="0_19" depart="39.00" departLane="MRT_to_KB_003_1" departPos="2.10" departPosLat="0.00" departSpeed="0.00" departDelay="0.88" arrival="69.00" arrivalLane="KBJ_to_CMB_002_2" arrivalPos="146.55" arrivalPosLat="-0.25" arrivalSpeed="17.48" duration="30.00" routeLength="399.35" waitingTime="0.00" waitingCount="0" stopTime="0.00" timeLoss="4.76" rerouteNo="0" devices="tripinfo_0_19" vType="Motor_Cycle" speedFactor="1.05" vaporized=""/>
    <tripinfo id="0_23" depart="51.00" departLane="CMB_to_KBJ_001_2" departPos="4.30" departPosLat="0.00" departSpeed="0.00" departDelay="0.15" arrival="79.00" arrivalLane="30093400_1" arrivalPos="127.33" arrivalPosLat="-0.55" arrivalSpeed="8.64" duration="28.00" routeLength="242.06" waitingTime="0.00" waitingCount="0" stopTime="0.00" timeLoss="6.23" rerouteNo="0" devices="tripinfo_0_23" vType="Car" speedFactor="1.07" vaporized=""/>
    <tripinfo id="0_27" depart="59.00" departLane="MRT_to_KB_001_2" departPos="4.30" departPosLat="0.00" departSpeed="0.00" departDelay="0.43" arrival="88.00" arrivalLane="KBJ_to_CMB_002_1" arrivalPos="146.55" arrivalPosLat="0.50" arrivalSpeed="13.99" duration="29.00" routeLength="346.58" waitingTime="0.00" waitingCount="0" stopTime="0.00" timeLoss="3.84" rerouteNo="0" devices="tripinfo_0_27" vType="Car" speedFactor="0.88" vaporized=""/>
    <tripinfo id="0_28" depart="66.00" departLane="MRT_to_KB_001.37_3" departPos="2.65" departPosLat="0.00" departSpeed="0.00" departDelay="1.25" arrival="90.00" arrivalLane="KBJ_to_CMB_002_2" arrivalPos="146.55" arrivalPosLat="0.00" arrivalSpeed="15.96" duration="24.00" routeLength="299.44" waitingTime="0.00" waitingCount="0" stopTime="0.00" timeLoss="5.50" rerouteNo="0" devices="tripinfo_0_28" vType="3_Wheeler" speedFactor="1.11" vaporized=""/>
    <tripinfo id="0_29" depart="75.00" departLane="MRT_to_KB_001.37_2" departPos="2.10" departPosLat="0.00" departSpeed="0.00" departDelay="0.68" arrival="97.00" arrivalLane="KBJ_to_CMB_002_1" arrivalPos="146.55" arrivalPosLat="0.00" arrivalSpeed="17.24" duration="22.00" routeLength="299.99" waitingTime="0.00" waitingCount="0" stopTime="0.00" timeLoss="4.18" rerouteNo="0" devices="tripinfo_0_29" vType="Motor_Cycle" speedFactor="1.09" vaporized=""/>
    <tripinfo id="0_33" depart="85.00" departLane="MRT_to_KB_001.37_2" departPos="2.10" departPosLat="0.00" departSpeed="0.00" departDelay="0.77" arrival="109.00" arrivalLane="KBJ_to_CMB_002_1" arrivalPos="146.55" arrivalPosLat="0.00" arrivalSpeed="16.07" duration="24.00" routeLength="299.99" waitingTime="0.00" waitingCount="0" stopTime="0.00" timeLoss="4.45" rerouteNo="0" devices="tripinfo_0_33" vType="Motor_Cycle" speedFactor="0.97" vaporized=""/>
    <tripinfo id="0_35" depart="89.00" departLane="MRT_to_KB_003_1" departPos="2.65" departPosLat="0.00" departSpeed="0.00" departDelay="0.92" arrival="110.00" arrivalLane="KBJ_to_CMB_001_2" arrivalPos="57.78" arrivalPosLat="0.00" arrivalSpeed="15.76" duration="21.00" routeLength="233.64" waitingTime="0.00" waitingCount="0" stopTime="0.00" timeLoss="5.84" rerouteNo="0" devices="tripinfo_0_35" vType="3_Wheeler" speedFactor="1.08" vaporized=""/>
    <tripinfo id="0_32" depart="84.00" departLane="MRT_to_KB_001_2" departPos="5.40" departPosLat="0.00" departSpeed="0.00" departDelay="0.02" arrival="111.00" arrivalLane="KBJ_to_CMB_002_1" arrivalPos="146.55" arrivalPosLat="-0.70" arrivalSpeed="18.99" duration="27.00" routeLength="345.48" waitingTime="0.00" waitingCount="0" stopTime="0.00" timeLoss="7.96" rerouteNo="0" devices="tripinfo_0_32" vType="Van" speedFactor="1.19" vaporized=""/>
    <tripinfo id="0_34" depart="86.00" departLane="MRT_to_KB_001_3" departPos="2.10" departPosLat="0.00" departSpeed="0.00" departDelay="0.04" arrival="112.00" arrivalLane="KBJ_to_CMB_002_2" arrivalPos="146.55" arrivalPosLat="0.00" arrivalSpeed="16.68" duration="26.00" routeLength="348.78" waitingTime="0.00" waitingCount="0" stopTime="0.00" timeLoss="3.67" rerouteNo="0" devices="tripinfo_0_34" vType="Motor_Cycle" speedFactor="1.00" vaporized=""/>
    <tripinfo id="bus_100/101/400/412/418/428/430/433:1.0" depart="0.00" departLane="CMB_to_KBJ_003_1" departPos="12.10" departPosLat="0.00" departSpeed="0.00" departDelay="0.00" arrival="117.00" arrivalLane="KB_to_MRT_002_1" arrivalPos="130.27" arrivalPosLat="0.00" arrivalSpeed="13.30" duration="117.00" routeLength="435.77" waitingTime="0.00" waitingCount="0" stopTime="61.00" timeLoss="29.48" rerouteNo="0" devices="tripinfo_bus_100/101/400/412/418/428/430/433:1.0" vType="bus" speedFactor="1.00" vaporized=""/>
    <tripinfo id="0_37" depart="96.00" departLane="MRT_to_KB_003_1" departPos="4.30" departPosLat="0.00" departSpeed="0.00" departDelay="0.92" arrival="124.00" arrivalLane="KBJ_to_CMB_002_1" arrivalPos="146.55" arrivalPosLat="0.50" arrivalSpeed="17.63" duration="28.00" routeLength="397.15" waitingTime="0.00" waitingCount="0" stopTime="0.00" timeLoss="3.80" rerouteNo="0" devices="tripinfo_0_37" vType="Car" speedFactor="1.06" vaporized=""/>
    <tripinfo id="0_2" depart="8.00" departLane="MRT_to_KB_001_4" departPos="4.30" departPosLat="0.00" departSpeed="0.00" departDelay="0.71" arrival="131.00" arrivalLane="KBJ_to_P_2" arrivalPos="128.65" arrivalPosLat="-0.70" arrivalSpeed="12.90" duration="123.00" routeLength="247.61" waitingTime="94.00" waitingCount="1" stopTime="0.00" timeLoss="104.48" rerouteNo="0" devices="tripinfo_0_2" vType="Car" speedFactor="0.98" vaporized=""/>
    <tripinfo id="0_24" depart="52.00" departLane="P_to_KBJ_1" departPos="2.10" departPosLat="0.00" departSpeed="0.00" departDelay="0.04" arrival="132.00" arrivalLane="KB_to_MRT_002_1" arrivalPos="130.27" arrivalPosLat="0.00" arrivalSpeed="15.25" duration="80.00" routeLength="338.14" waitingTime="46.00" waitingCount="1" stopTime="0.00" timeLoss="55.59" rerouteNo="0" devices="tripinfo_0_24" vType="Motor_Cycle" speedFactor="0.93" vaporized=""/>
    <tripinfo id="0_21" depart="47.00" departLane="MRT_to_KB_003_3" departPos="2.65" departPosLat="0.00" departSpeed="0.00" departDelay="0.07" arrival="134.00" arrivalLane="KBJ_to_P_2" arrivalPos="128.65" arrivalPosLat="0.00" arrivalSpeed="12.03" duration="87.00" routeLength="299.83" waitingTime="51.00" waitingCount="1" stopTime="0.00" timeLoss="63.20" rerouteNo="0" devices="tripinfo_0_21" vType="3_Wheeler" speedFactor="0.94" vaporized=""/>
    <tripinfo id="0_36" depart="89.00" departLane="MRT_to_KB_001_4" departPos="4.30" departPosLat="0.00" departSpeed="0.00" departDelay="0.67" arrival="135.00" arrivalLane="KBJ_to_P_2" arrivalPos="128.65" arrivalPosLat="-0.70" arrivalSpeed="14.22" duration="46.00" routeLength="247.61" waitingTime="16.00" waitingCount="1" stopTime="0.00" timeLoss="28.49" rerouteNo="0" devices="tripinfo_0_36" vType="Car" speedFactor="1.05" vaporized=""/>
    <tripinfo id="0_44" depart="113.00" departLane="MRT_to_KB_001.37_5" departPos="2.10" departPosLat="0.00" departSpeed="0.00" departDelay="0.62" arrival="137.00" arrivalLane="KBJ_to_P_2" arrivalPos="128.65" arrivalPosLat="1.10" arrivalSpeed="13.97" duration="24.00" routeLength="201.02" waitingTime="0.00" waitingCount="0" stopTime="0.00" timeLoss="9.28" rerouteNo="0" devices="tripinfo_0_44" vType="Motor_Cycle" speedFactor="1.03" vaporized=""/>
    <tripinfo id="0_43" depart="112.00" departLane="MRT_to_KB_003_3" departPos="4.30" departPosLat="0.00" departSpeed="0.00" departDelay="0.95" arrival="139.00" arrivalLane="KBJ_to_P_2" arrivalPos="128.65" arrivalPosLat="-0.70" arrivalSpeed="14.21" duration="27.00" routeLength="298.18" waitingTime="0.00" waitingCount="0" stopTime="0.00" timeLoss="5.75" rerouteNo="0" devices="tripinfo_0_43" vType="Car" speedFactor="1.05" vaporized=""/>
    <tripinfo id="0_61" depart="151.00" departLane="MRT_to_KB_001.37_5" departPos="2.65" departPosLat="0.00" departSpeed="0.00" departDelay="0.55" arrival="172.00" arrivalLane="KBJ_to_P_2" arrivalPos="128.65" arrivalPosLat="0.25" arrivalSpeed="14.21" duration="21.00" routeLength="200.47" waitingTime="0.00" waitingCount="0" stopTime="0.00" timeLoss="6.56" rerouteNo="0" devices="tripinfo_0_61" vType="3_Wheeler" speedFactor="1.07" vaporized=""/>
    <tripinfo id="bus_100/101/400/412/418/428/430/433:0.0" depart="0.00" departLane="MRT_to_KB_001_1" departPos="12.10" departPosLat="0.00" departSpeed="0.00" departDelay="0.00" arrival="183.00" arrivalLane="KBJ_to_CMB_002_1" arrivalPos="146.55" arrivalPosLat="0.00" arrivalSpeed="6.54" duration="183.00" routeLength="338.78" waitingTime="1.00" waitingCount="1" stopTime="119.00" timeLoss="42.21" rerouteNo="0" devices="tripinfo_bus_100/101/400/412/418/428/430/433:0.0" vType="bus" speedFactor="1.00" vaporized=""/>
    <tripinfo id="0_22" depart="49.00" departLane="P_to_KBJ_2" departPos="4.30" departPosLat="0.00" departSpeed="0.00" departDelay="0.12" arrival="198.00" arrivalLane="KBJ_to_CMB_002_3" arrivalPos="146.55" arrivalPosLat="-0.60" arrivalSpeed="14.90" duration="149.00" routeLength="388.81" waitingTime="113.00" waitingCount="1" stopTime="0.00" timeLoss="121.32" rerouteNo="0" devices="tripinfo_0_22" vType="Car" speedFactor="0.93" vaporized=""/>
    <tripinfo id="0_54" depart="132.00" departLane="P_to_KBJ_2" departPos="2.65" departPosLat="0.00" departSpeed="0.00" departDelay="0.31" arrival="201.00" arrivalLane="KBJ_to_CMB_002_3" arrivalPos="146.55" arrivalPosLat="0.00" arrivalSpeed="14.71" duration="69.00" routeLength="390.46" waitingTime="30.00" waitingCount="1" stopTime="0.00" timeLoss="41.05" rerouteNo="0" devices="tripinfo_0_54" vType="3_Wheeler" speedFactor="0.94" vaporized=""/>
    <tripinfo id="0_73" depart="167.00" departLane="P_to_KBJ_2" departPos="4.30" departPosLat="0.00" departSpeed="0.00" departDelay="0.69" arrival="202.00" arrivalLane="KBJ_to_CMB_002_3" arrivalPos="146.55" arrivalPosLat="-0.60" arrivalSpeed="16.83" duration="35.00" routeLength="388.81" waitingTime="0.00" waitingCount="0" stopTime="0.00" timeLoss="9.49" rerouteNo="0" devices="tripinfo_0_73" vType="Car" speedFactor="1.01" vaporized=""/>
    <tripinfo id="0_76" depart="173.00" departLane="P_to_KBJ_2" departPos="4.30" departPosLat="0.00" departSpeed="0.00" departDelay="0.36" arrival="206.00" arrivalLane="KBJ_to_CMB_002_3" arrivalPos="146.55" arrivalPosLat="-0.60" arrivalSpeed="14.50" duration="33.00" routeLength="388.81" waitingTime="0.00" waitingCount="0" stopTime="0.00" timeLoss="3.93" rerouteNo="0" devices="tripinfo_0_76" vType="Car" speedFactor="0.90" vaporized=""/>
    <tripinfo id="0_85" depart="188.00" departLane="P_to_KBJ_2" departPos="4.30" departPosLat="0.00" departSpeed="0.00" departDelay="0.24" arrival="223.00" arrivalLane="KBJ_to_CMB_002_3" arrivalPos="146.55" arrivalPosLat="-0.60" arrivalSpeed="13.11" duration="35.00" routeLength="388.81" waitingTime="0.00" waitingCount="0" stopTime="0.00" timeLoss="3.72" rerouteNo="0" devices="tripinfo_0_85" vType="Car" speedFactor="0.82" vaporized=""/>
    <tripinfo id="0_98" depart="211.00" departLane="P_to_KBJ_2" departPos="4.30" departPosLat="0.00" departSpeed="0.00" departDelay="0.41" arrival="230.00" arrivalLane="KBJ_to_CMB_001_4" arrivalPos="57.78" arrivalPosLat="-0.60" arrivalSpeed="18.60" duration="19.00" routeLength="223.65" waitingTime="0.00" waitingCount="0" stopTime="0.00" timeLoss="4.96" rerouteNo="0" devices="tripinfo_0_98" vType="Car" speedFactor="1.15" vaporized=""/>
    <tripinfo id="0_38" depart="97.00" departLane="MRT_to_KB_003_2" departPos="2.10" departPosLat="0.00" departSpeed="0.00" departDelay="0.11" arrival="248.00" arrivalLane="KBJ_to_CMB_001_2" arrivalPos="57.78" arrivalPosLat="1.30" arrivalSpeed="13.59" duration="151.00" routeLength="234.19" waitingTime="123.00" waitingCount="2" stopTime="0.00" timeLoss="132.22" rerouteNo="0" devices="tripinfo_0_38" vType="Motor_Cycle" speedFactor="0.86" vaporized=""/>
    <tripinfo id="0_45" depart="113.00" departLane="MRT_to_KB_003_2" departPos="2.10" departPosLat="0.00" departSpeed="0.00" departDelay="0.33" arrival="250.00" arrivalLane="KBJ_to_CMB_001_3" arrivalPos="57.78" arrivalPosLat="0.05" arrivalSpeed="14.01" duration="137.00" routeLength="234.19" waitingTime="109.00" waitingCount="1" stopTime="0.00" timeLoss="118.97" rerouteNo="0" devices="tripinfo_0_45" vType="Motor_Cycle" speedFactor="0.88" vaporized=""/>
    <tripinfo id="0_39" depart="102.00" departLane="CMB_to_KBJ_001_3" departPos="2.10" departPosLat="0.00" departSpeed="0.00" departDelay="0.60" arrival="257.00" arrivalLane="KB_to_MRT_002_2" arrivalPos="130.27" arrivalPosLat="0.00" arrivalSpeed="13.70" duration="155.00" routeLength="252.04" waitingTime="129.00" waitingCount="1" stopTime="0.00" timeLoss="138.00" rerouteNo="0" devices="tripinfo_0_39" vType="Motor_Cycle" speedFactor="0.91" vaporized=""/>
    <tripinfo id="0_65" depart="155.00" departLane="CMB_to_KBJ_001_4" departPos="2.65" departPosLat="0.00" departSpeed="0.00" departDelay="0.11" arrival="257.00" arrivalLane="KB_to_MRT_002_3" arrivalPos="130.27" arrivalPosLat="0.00" arrivalSpeed="16.03" duration="102.00" routeLength="251.49" waitingTime="76.00" waitingCount="1" stopTime="0.00" timeLoss="86.73" rerouteNo="0" devices="tripinfo_0_65" vType="3_Wheeler" speedFactor="1.26" vaporized=""/>
    <tripinfo id="0_70" depart="164.00" departLane="MRT_to_KB_001.37_3" departPos="2.10" departPosLat="0.00" departSpeed="0.00" departDelay="1.21" arrival="258.00" arrivalLane="KBJ_to_CMB_001_3" arrivalPos="57.78" arrivalPosLat="0.05" arrivalSpeed="15.54" duration="94.00" routeLength="134.83" waitingTime="74.00" waitingCount="1" stopTime="0.00" timeLoss="84.45" rerouteNo="0" devices="tripinfo_0_70" vType="Motor_Cycle" speedFactor="0.94" vaporized=""/>
    <tripinfo id="0_91" depart="194.00" departLane="CMB_to_KBJ_002_2" departPos="4.30" departPosLat="0.00" departSpeed="0.00" departDelay="0.36" arrival="259.00" arrivalLane="KB_to_MRT_002_3" arrivalPos="130.27" arrivalPosLat="0.55" arrivalSpeed="14.59" duration="65.00" routeLength="292.96" waitingTime="29.00" waitingCount="3" stopTime="0.00" timeLoss="45.90" rerouteNo="0" devices="tripinfo_0_91" vType="Car" speedFactor="0.93" vaporized=""/>
    <tripinfo id="0_42" depart="109.00" departLane="MRT_to_KB_001.37_2" departPos="2.65" departPosLat="0.00" departSpeed="0.00" departDelay="0.94" arrival="260.00" arrivalLane="KBJ_to_CMB_002_1" arrivalPos="146.55" arrivalPosLat="-0.00" arrivalSpeed="16.65" duration="151.00" routeLength="299.44" waitingTime="121.00" waitingCount="1" stopTime="0.00" timeLoss="132.12" rerouteNo="0" devices="tripinfo_0_42" vType="3_Wheeler" speedFactor="1.00" vaporized=""/>
    <tripinfo id="0_69" depart="164.00" departLane="MRT_to_KB_001.37_4" departPos="2.65" departPosLat="0.00" departSpeed="0.00" departDelay="1.81" arrival="260.00" arrivalLane="KBJ_to_CMB_001_4" arrivalPos="57.78" arrivalPosLat="-0.10" arrivalSpeed="12.36" duration="96.00" routeLength="134.28" waitingTime="74.00" waitingCount="1" stopTime="0.00" timeLoss="83.65" rerouteNo="0" devices="tripinfo_0_69" vType="3_Wheeler" speedFactor="0.75" vaporized=""/>
    <tripinfo id="0_47" depart="116.00" departLane="MRT_to_KB_003_1" departPos="4.30" departPosLat="0.00" departSpeed="0.00" departDelay="0.17" arrival="261.00" arrivalLane="KBJ_to_CMB_002_2" arrivalPos="146.55" arrivalPosLat="-0.45" arrivalSpeed="17.86" duration="145.00" routeLength="397.15" waitingTime="107.00" waitingCount="1" stopTime="0.00" timeLoss="121.77" rerouteNo="0" devices="tripinfo_0_47" vType="Car" speedFactor="1.12" vaporized=""/>
    <tripinfo id="0_58" depart="143.00" departLane="MRT_to_KB_001.37_2" departPos="2.10" departPosLat="0.00" departSpeed="0.00" departDelay="0.75" arrival="261.00" arrivalLane="KBJ_to_CMB_001_2" arrivalPos="57.78" arrivalPosLat="0.30" arrivalSpeed="6.82" duration="118.00" routeLength="134.83" waitingTime="92.00" waitingCount="1" stopTime="0.00" timeLoss="109.73" rerouteNo="0" devices="tripinfo_0_58" vType="Motor_Cycle" speedFactor="1.08" vaporized=""/>
    <tripinfo id="0_78" depart="174.00" departLane="MRT_to_KB_003_1" departPos="2.10" departPosLat="0.00" departSpeed="0.00" departDelay="0.52" arrival="261.00" arrivalLane="KBJ_to_CMB_001_3" arrivalPos="57.78" arrivalPosLat="-1.05" arrivalSpeed="16.93" duration="87.00" routeLength="234.19" waitingTime="59.00" waitingCount="1" stopTime="0.00" timeLoss="71.15" rerouteNo="0" devices="tripinfo_0_78" vType="Motor_Cycle" speedFactor="1.02" vaporized=""/>
    <tripinfo id="0_48" depart="117.00" departLane="MRT_to_KB_001_2" departPos="4.30" departPosLat="0.00" departSpeed="0.00" departDelay="0.55" arrival="262.00" arrivalLane="KBJ_to_CMB_002_1" arrivalPos="146.55" arrivalPosLat="-0.70" arrivalSpeed="17.45" duration="145.00" routeLength="346.58" waitingTime="110.00" waitingCount="1" stopTime="0.00" timeLoss="123.70" rerouteNo="0" devices="tripinfo_0_48" vType="Car" speedFactor="1.08" vaporized=""/>
    <tripinfo id="0_110" depart="239.00" departLane="CMB_to_KBJ_001_1" departPos="4.30" departPosLat="0.00" departSpeed="0.00" departDelay="0.26" arrival="262.00" arrivalLane="KBJ_to_P_2" arrivalPos="128.65" arrivalPosLat="0.50" arrivalSpeed="15.57" duration="23.00" routeLength="170.84" waitingTime="0.00" waitingCount="0" stopTime="0.00" timeLoss="12.01" rerouteNo="0" devices="tripinfo_0_110" vType="Car" speedFactor="1.18" vaporized=""/>
    <tripinfo id="0_40" depart="108.00" departLane="MRT_to_KB_001.37_4" departPos="2.65" departPosLat="0.00" departSpeed="0.00" departDelay="1.21" arrival="264.00" arrivalLane="KBJ_to_CMB_002_2" arrivalPos="146.55" arrivalPosLat="1.15" arrivalSpeed="11.71" duration="156.00" routeLength="299.44" waitingTime="121.00" waitingCount="1" stopTime="0.00" timeLoss="130.00" rerouteNo="0" devices="tripinfo_0_40" vType="3_Wheeler" speedFactor="0.74" vaporized=""/>
    <tripinfo id="0_79" depart="176.00" departLane="MRT_to_KB_003_2" departPos="4.30" departPosLat="0.00" departSpeed="0.00" departDelay="0.27" arrival="264.00" arrivalLane="KBJ_to_CMB_001_4" arrivalPos="57.78" arrivalPosLat="-0.60" arrivalSpeed="15.35" duration="88.00" routeLength="231.99" waitingTime="60.00" waitingCount="1" stopTime="0.00" timeLoss="71.15" rerouteNo="0" devices="tripinfo_0_79" vType="Car" speedFactor="0.95" vaporized=""/>
    <tripinfo id="0_41" depart="108.00" departLane="MRT_to_KB_003_1" departPos="4.30" departPosLat="0.00" departSpeed="0.00" departDelay="0.15" arrival="265.00" arrivalLane="KBJ_to_CMB_002_3" arrivalPos="146.55" arrivalPosLat="-0.20" arrivalSpeed="14.14" duration="157.00" routeLength="397.15" waitingTime="116.00" waitingCount="1" stopTime="0.00" timeLoss="131.78" rerouteNo="0" devices="tripinfo_0_41" vType="Car" speedFactor="1.04" vaporized=""/>
    <tripinfo id="0_52" depart="129.00" departLane="MRT_to_KB_001_2" departPos="2.10" departPosLat="0.00" departSpeed="0.00" departDelay="0.54" arrival="265.00" arrivalLane="KBJ_to_CMB_002_2" arrivalPos="146.55" arrivalPosLat="-0.55" arrivalSpeed="14.58" duration="136.00" routeLength="348.78" waitingTime="101.00" waitingCount="1" stopTime="0.00" timeLoss="112.42" rerouteNo="0" devices="tripinfo_0_52" vType="Motor_Cycle" speedFactor="0.96" vaporized=""/>