<?xml version="1.0" encoding="UTF-8"?>

<!-- generated on 2025-08-05 09:19:54 by Eclipse SUMO sumo Version 1.24.0
<sumoConfiguration xmlns:xsi="http://www.w3.org/2001/XMLSchema-instance" xsi:noNamespaceSchemaLocation="http://sumo.dlr.de/xsd/sumoConfiguration.xsd">

    <input>
        <net-file value="network/katubedda_junction_network.net.xml"/>
        <route-files value="demand/calibrated_demand_warmup.rou.xml,                             demand/calibrated_demand_6am_7am.rou.xml,                             demand/bus_demand.rou.xml"/>
        <additional-files value="additionals/traffic_lights_static.ttl.xml,                                  additionals/bus/bus_stops.add.xml,                                 additionals/vtype_dist_base.xml"/>
    </input>

    <output>
        <output-prefix value="64607."/>
        <queue-output value="outputs/static_vehicle_data/static_vehicle_data.xml"/>
        <queue-output.period value="300"/>
        <tripinfo-output value="outputs/static_vehicle_data/tripinfo_static_vehicle_data.xml"/>
    </output>

    <processing>
        <lateral-resolution value="1.2"/>
        <collision.action value="none"/>
    </processing>

    <random_number>
        <seed value="64607"/>
    </random_number>

    <gui_only>
        <gui-settings-file value="additionals/satelite_image_bg.xml"/>
    </gui_only>

</sumoConfiguration>
-->

<tripinfos xmlns:xsi="http://www.w3.org/2001/XMLSchema-instance" xsi:noNamespaceSchemaLocation="http://sumo.dlr.de/xsd/tripinfo_file.xsd">
    <tripinfo id="0_1" depart="5.00" departLane="MRT_to_KB_001_2" departPos="4.30" departPosLat="0.00" departSpeed="0.00" departDelay="0.36" arrival="31.00" arrivalLane="KBJ_to_CMB_002_1" arrivalPos="146.55" arrivalPosLat="0.50" arrivalSpeed="16.64" duration="26.00" routeLength="346.58" waitingTime="0.00" waitingCount="0" stopTime="0.00" timeLoss="3.99" rerouteNo="0" devices="tripinfo_0_1" vType="Car" speedFactor="1.03" vaporized=""/>
    <tripinfo id="0_3" depart="8.00" departLane="CMB_to_KBJ_003_2" departPos="2.65" departPosLat="0.00" departSpeed="0.00" departDelay="0.39" arrival="33.00" arrivalLane="KB_to_MRT_001_1" arrivalPos="44.82" arrivalPosLat="0.00" arrivalSpeed="16.16" duration="25.00" routeLength="301.17" waitingTime="0.00" waitingCount="0" stopTime="0.00" timeLoss="5.98" rerouteNo="0" devices="tripinfo_0_3" vType="3_Wheeler" speedFactor="1.02" vaporized=""/>
    <tripinfo id="0_8" depart="13.00" departLane="MRT_to_KB_003_1" departPos="5.40" departPosLat="0.00" departSpeed="0.00" departDelay="0.78" arrival="35.00" arrivalLane="KBJ_to_CMB_001_2" arrivalPos="57.78" arrivalPosLat="-0.70" arrivalSpeed="14.92" duration="22.00" routeLength="230.89" waitingTime="0.00" waitingCount="0" stopTime="0.00" timeLoss="4.18" rerouteNo="0" devices="tripinfo_0_8" vType="Van" speedFactor="0.91" vaporized=""/>
    <tripinfo id="0_10" depart="14.00" departLane="MRT_to_KB_003_2" departPos="4.30" departPosLat="0.00" departSpeed="0.00" departDelay="0.20" arrival="35.00" arrivalLane="KBJ_to_CMB_001_3" arrivalPos="57.78" arrivalPosLat="-0.45" arrivalSpeed="17.24" duration="21.00" routeLength="231.99" waitingTime="0.00" waitingCount="0" stopTime="0.00" timeLoss="5.80" rerouteNo="0" devices="tripinfo_0_10" vType="Car" speedFactor="1.09" vaporized=""/>
    <tripinfo id="0_5" depart="10.00" departLane="MRT_to_KB_001_2" departPos="2.10" departPosLat="0.00" departSpeed="0.00" departDelay="0.85" arrival="36.00" arrivalLane="KBJ_to_CMB_002_1" arrivalPos="146.55" arrivalPosLat="0.00" arrivalSpeed="16.76" duration="26.00" routeLength="348.78" waitingTime="0.00" waitingCount="0" stopTime="0.00" timeLoss="3.63" rerouteNo="0" devices="tripinfo_0_5" vType="Motor_Cycle" speedFactor="1.01" vaporized=""/>
    <tripinfo id="0_6" depart="11.00" departLane="MRT_to_KB_001_3" departPos="4.30" departPosLat="0.00" departSpeed="0.00" departDelay="0.22" arrival="36.00" arrivalLane="KBJ_to_CMB_002_2" arrivalPos="146.55" arrivalPosLat="-0.45" arrivalSpeed="16.54" duration="25.00" routeLength="346.58" waitingTime="0.00" waitingCount="0" stopTime="0.00" timeLoss="3.72" rerouteNo="0" devices="tripinfo_0_6" vType="Car" speedFactor="1.04" vaporized=""/>
    <tripinfo id="0_7" depart="12.00" departLane="CMB_to_KBJ_002_2" departPos="4.30" departPosLat="0.00" departSpeed="0.00" departDelay="0.80" arrival="37.00" arrivalLane="KB_to_MRT_002_2" arrivalPos="130.27" arrivalPosLat="-1.45" arrivalSpeed="18.23" duration="25.00" routeLength="292.96" waitingTime="0.00" waitingCount="0" stopTime="0.00" timeLoss="8.89" rerouteNo="0" devices="tripinfo_0_7" vType="Car" speedFactor="1.12" vaporized=""/>
    <tripinfo id="0_11" depart="16.00" departLane="MRT_to_KB_003_1" departPos="2.10" departPosLat="0.00" departSpeed="0.00" departDelay="0.50" arrival="37.00" arrivalLane="KBJ_to_CMB_001_2" arrivalPos="57.78" arrivalPosLat="1.00" arrivalSpeed="16.29" duration="21.00" routeLength="234.19" waitingTime="0.00" waitingCount="0" stopTime="0.00" timeLoss="6.14" rerouteNo="0" devices="tripinfo_0_11" vType="Motor_Cycle" speedFactor="1.08" vaporized=""/>
    <tripinfo id="0_4" depart="8.00" departLane="MRT_to_KB_003_2" departPos="2.10" departPosLat="0.00" departSpeed="0.00" departDelay="0.05" arrival="39.00" arrivalLane="KBJ_to_CMB_002_2" arrivalPos="146.55" arrivalPosLat="1.05" arrivalSpeed="15.55" duration="31.00" routeLength="399.35" waitingTime="0.00" waitingCount="0" stopTime="0.00" timeLoss="4.74" rerouteNo="0" devices="tripinfo_0_4" vType="Motor_Cycle" speedFactor="1.00" vaporized=""/>
    <tripinfo id="0_0" depart="5.00" departLane="MRT_to_KB_003_1" departPos="2.10" departPosLat="0.00" departSpeed="0.00" departDelay="0.68" arrival="40.00" arrivalLane="KBJ_to_CMB_002_1" arrivalPos="146.55" arrivalPosLat="1.50" arrivalSpeed="15.86" duration="35.00" routeLength="399.35" waitingTime="0.00" waitingCount="0" stopTime="0.00" timeLoss="7.68" rerouteNo="0" devices="tripinfo_0_0" vType="Motor_Cycle" speedFactor="0.96" vaporized=""/>
    <tripinfo id="0_9" depart="14.00" departLane="CMB_to_KBJ_001_2" departPos="4.30" departPosLat="0.00" departSpeed="0.00" departDelay="0.41" arrival="43.00" arrivalLane="30093400_1" arrivalPos="127.33" arrivalPosLat="-0.55" arrivalSpeed="7.71" duration="29.00" routeLength="242.06" waitingTime="0.00" waitingCount="0" stopTime="0.00" timeLoss="5.92" rerouteNo="0" devices="tripinfo_0_9" vType="Car" speedFactor="1.01" vaporized=""/>
    <tripinfo id="0_17" depart="30.00" departLane="MRT_to_KB_003_1" departPos="2.10" departPosLat="0.00" departSpeed="0.00" departDelay="0.65" arrival="52.00" arrivalLane="KBJ_to_CMB_001_2" arrivalPos="57.78" arrivalPosLat="1.00" arrivalSpeed="13.63" duration="22.00" routeLength="234.19" waitingTime="0.00" waitingCount="0" stopTime="0.00" timeLoss="3.59" rerouteNo="0" devices="tripinfo_0_17" vType="Motor_Cycle" speedFactor="0.90" vaporized=""/>
    <tripinfo id="0_16" depart="30.00" departLane="MRT_to_KB_001.37_3" departPos="2.10" departPosLat="0.00" departSpeed="0.00" departDelay="0.85" arrival="53.00" arrivalLane="KBJ_to_CMB_002_2" arrivalPos="146.55" arrivalPosLat="0.00" arrivalSpeed="16.04" duration="23.00" routeLength="299.99" waitingTime="0.00" waitingCount="0" stopTime="0.00" timeLoss="3.63" rerouteNo="0" devices="tripinfo_0_16" vType="Motor_Cycle" speedFactor="0.99" vaporized=""/>
    <tripinfo id="0_12" depart="22.00" departLane="MRT_to_KB_003_1" departPos="4.30" departPosLat="0.00" departSpeed="0.00" departDelay="0.83" arrival="56.00" arrivalLane="KBJ_to_CMB_002_2" arrivalPos="146.55" arrivalPosLat="-0.45" arrivalSpeed="15.58" duration="34.00" routeLength="397.15" waitingTime="0.00" waitingCount="0" stopTime="0.00" timeLoss="6.94" rerouteNo="0" devices="tripinfo_0_12" vType="Car" speedFactor="0.97" vaporized=""/>
    <tripinfo id="0_14" depart="26.00" departLane="MRT_to_KB_001_3" departPos="4.30" departPosLat="0.00" departSpeed="0.00" departDelay="0.40" arrival="56.00" arrivalLane="KBJ_to_CMB_002_1" arrivalPos="146.55" arrivalPosLat="-0.70" arrivalSpeed="14.16" duration="30.00" routeLength="346.58" waitingTime="0.00" waitingCount="0" stopTime="0.00" timeLoss="4.85" rerouteNo="0" devices="tripinfo_0_14" vType="Car" speedFactor="0.88" vaporized=""/>
    <tripinfo id="0_15" depart="30.00" departLane="MRT_to_KB_001_2" departPos="2.65" departPosLat="0.00" departSpeed="0.00" departDelay="1.81" arrival="58.00" arrivalLane="KBJ_to_CMB_002_2" arrivalPos="146.55" arrivalPosLat="-0.25" arrivalSpeed="16.21" duration="28.00" routeLength="348.23" waitingTime="0.00" waitingCount="0" stopTime="0.00" timeLoss="7.02" rerouteNo="0" devices="tripinfo_0_15" vType="3_Wheeler" speedFactor="1.32" vaporized=""/>
    <tripinfo id="0_18" depart="35.00" departLane="MRT_to_KB_001.37_2" departPos="2.10" departPosLat="0.00" departSpeed="0.00" departDelay="0.18" arrival="60.00" arrivalLane="KBJ_to_CMB_002_1" arrivalPos="146.55" arrivalPosLat="-0.80" arrivalSpeed="14.37" duration="25.00" routeLength="299.99" waitingTime="0.00" waitingCount="0" stopTime="0.00" timeLoss="3.56" rerouteNo="0" devices="tripinfo_0_18" vType="Motor_Cycle" speedFactor="0.87" vaporized=""/>
    <tripinfo id="0_20" depart="43.00" departLane="MRT_to_KB_003_2" departPos="2.65" departPosLat="0.00" departSpeed="0.00" departDelay="0.97" arrival="64.00" arrivalLane="KBJ_to_CMB_001_3" arrivalPos="57.78" arrivalPosLat="0.45" arrivalSpeed="15.12" duration="21.00" routeLength="233.64" waitingTime="0.00" waitingCount="0" stopTime="0.00" timeLoss="3.97" rerouteNo="0" devices="tripinfo_0_20" vType="3_Wheeler" speedFactor="0.93" vaporized=""/>
    <tripinfo id="0_25" depart="52.00" departLane="MRT_to_KB_001.37_2" departPos="4.30" departPosLat="0.00" departSpeed="0.00" departDelay="0.01" arrival="65.00" arrivalLane="KBJ_to_CMB_001_2" arrivalPos="57.78" arrivalPosLat="0.50" arrivalSpeed="14.07" duration="13.00" routeLength="132.63" waitingTime="0.00" waitingCount="0" stopTime="0.00" timeLoss="2.96" rerouteNo="0" devices="tripinfo_0_25" vType="Car" speedFactor="0.90" vaporized=""/>
    <tripinfo id="0_13" depart="24.00" departLane="CMB_to_KBJ_003_2" departPos="2.10" departPosLat="0.00" departSpeed="0.00" departDelay="0.46" arrival="66.00" arrivalLane="30093400_1" arrivalPos="127.33" arrivalPosLat="0.00" arrivalSpeed="6.94" duration="42.00" routeLength="437.99" waitingTime="0.00" waitingCount="0" stopTime="0.00" timeLoss="7.45" rerouteNo="0" devices="tripinfo_0_13" vType="Motor_Cycle" speedFactor="1.02" vaporized=""/>
    <tripinfo id="0_26" depart="54.00" departLane="MRT_to_KB_001.37_4" departPos="2.10" departPosLat="0.00" departSpeed="0.00" departDelay="0.87" arrival="67.00" arrivalLane="KBJ_to_CMB_001_4" arrivalPos="57.78" arrivalPosLat="0.00" arrivalSpeed="13.49" duration="13.00" routeLength="134.83" waitingTime="0.00" waitingCount="0" stopTime="0.00" timeLoss="2.91" rerouteNo="0" devices="tripinfo_0_26" vType="Motor_Cycle" speedFactor="0.90" vaporized=""/>
    <tripinfo id="0_19" depart="39.00" departLane="MRT_to_KB_003_1" departPos="2.10" departPosLat="0.00" departSpeed="0.00" departDelay="0.88" arrival="71.00" arrivalLane="KBJ_to_CMB_002_2" arrivalPos="146.55" arrivalPosLat="-0.25" arrivalSpeed="14.69" duration="32.00" routeLength="399.35" waitingTime="0.00" waitingCount="0" stopTime="0.00" timeLoss="4.33" rerouteNo="0" devices="tripinfo_0_19" vType="Motor_Cycle" speedFactor="0.96" vaporized=""/>
    <tripinfo id="0_23" depart="51.00" departLane="CMB_to_KBJ_001_2" departPos="6.35" departPosLat="0.00" departSpeed="0.00" departDelay="0.15" arrival="82.00" arrivalLane="30093400_1" arrivalPos="127.33" arrivalPosLat="-0.42" arrivalSpeed="8.06" duration="31.00" routeLength="240.01" waitingTime="0.00" waitingCount="0" stopTime="0.00" timeLoss="5.24" rerouteNo="0" devices="tripinfo_0_23" vType="Goods_Vehicle" speedFactor="0.98" vaporized=""/>
    <tripinfo id="0_27" depart="59.00" departLane="MRT_to_KB_001_2" departPos="4.30" departPosLat="0.00" departSpeed="0.00" departDelay="0.43" arrival="85.00" arrivalLane="KBJ_to_CMB_002_1" arrivalPos="146.55" arrivalPosLat="0.50" arrivalSpeed="16.63" duration="26.00" routeLength="346.58" waitingTime="0.00" waitingCount="0" stopTime="0.00" timeLoss="4.17" rerouteNo="0" devices="tripinfo_0_27" vType="Car" speedFactor="1.03" vaporized=""/>
    <tripinfo id="0_28" depart="66.00" departLane="MRT_to_KB_001.37_3" departPos="2.65" departPosLat="0.00" departSpeed="0.00" departDelay="1.25" arrival="98.00" arrivalLane="KBJ_to_CMB_002_1" arrivalPos="146.55" arrivalPosLat="1.25" arrivalSpeed="10.80" duration="32.00" routeLength="299.44" waitingTime="0.00" waitingCount="0" stopTime="0.00" timeLoss="4.02" rerouteNo="0" devices="tripinfo_0_28" vType="3_Wheeler" speedFactor="0.68" vaporized=""/>
    <tripinfo id="0_29" depart="75.00" departLane="MRT_to_KB_001.37_2" departPos="4.30" departPosLat="0.00" departSpeed="0.00" departDelay="0.68" arrival="99.00" arrivalLane="KBJ_to_CMB_002_1" arrivalPos="146.55" arrivalPosLat="0.50" arrivalSpeed="12.69" duration="24.00" routeLength="297.79" waitingTime="0.00" waitingCount="0" stopTime="0.00" timeLoss="6.41" rerouteNo="0" devices="tripinfo_0_29" vType="Car" speedFactor="1.06" vaporized=""/>
    <tripinfo id="0_35" depart="89.00" departLane="MRT_to_KB_003_1" departPos="2.10" departPosLat="0.00" departSpeed="0.00" departDelay="0.92" arrival="107.00" arrivalLane="KBJ_to_CMB_001_2" arrivalPos="57.78" arrivalPosLat="0.00" arrivalSpeed="19.20" duration="18.00" routeLength="234.19" waitingTime="0.00" waitingCount="0" stopTime="0.00" timeLoss="4.02" rerouteNo="0" devices="tripinfo_0_35" vType="Motor_Cycle" speedFactor="1.18" vaporized=""/>
    <tripinfo id="0_33" depart="85.00" departLane="MRT_to_KB_001.37_2" departPos="5.40" departPosLat="0.00" departSpeed="0.00" departDelay="0.77" arrival="111.00" arrivalLane="KBJ_to_CMB_002_1" arrivalPos="146.55" arrivalPosLat="-0.70" arrivalSpeed="14.19" duration="26.00" routeLength="296.69" waitingTime="0.00" waitingCount="0" stopTime="0.00" timeLoss="4.07" rerouteNo="0" devices="tripinfo_0_33" vType="Van" speedFactor="0.86" vaporized=""/>
    <tripinfo id="0_34" depart="86.00" departLane="MRT_to_KB_001_3" departPos="4.30" departPosLat="0.00" departSpeed="0.00" departDelay="0.04" arrival="111.00" arrivalLane="KBJ_to_CMB_002_2" arrivalPos="146.55" arrivalPosLat="-0.45" arrivalSpeed="18.06" duration="25.00" routeLength="346.58" waitingTime="0.00" waitingCount="0" stopTime="0.00" timeLoss="4.32" rerouteNo="0" devices="tripinfo_0_34" vType="Car" speedFactor="1.10" vaporized=""/>
    <tripinfo id="0_32" depart="84.00" departLane="MRT_to_KB_001_2" departPos="5.40" departPosLat="0.00" departSpeed="0.00" departDelay="0.02" arrival="113.00" arrivalLane="KBJ_to_CMB_002_1" arrivalPos="146.55" arrivalPosLat="-0.70" arrivalSpeed="15.01" duration="29.00" routeLength="345.48" waitingTime="0.00" waitingCount="0" stopTime="0.00" timeLoss="4.38" rerouteNo="0" devices="tripinfo_0_32" vType="Van" speedFactor="0.92" vaporized=""/>
    <tripinfo id="0_38" depart="97.00" departLane="MRT_to_KB_003_2" departPos="4.30" departPosLat="0.00" departSpeed="0.00" departDelay="0.11" arrival="115.00" arrivalLane="KBJ_to_CMB_001_3" arrivalPos="57.78" arrivalPosLat="0.45" arrivalSpeed="17.96" duration="18.00" routeLength="231.99" waitingTime="0.00" waitingCount="0" stopTime="0.00" timeLoss="3.76" rerouteNo="0" devices="tripinfo_0_38" vType="Car" speedFactor="1.13" vaporized=""/>
    <tripinfo id="bus_100/101/400/412/418/428/430/433:1.0" depart="0.00" departLane="CMB_to_KBJ_003_1" departPos="12.10" departPosLat="0.00" departSpeed="0.00" departDelay="0.00" arrival="117.00" arrivalLane="KB_to_MRT_002_1" arrivalPos="130.27" arrivalPosLat="0.00" arrivalSpeed="14.26" duration="117.00" routeLength="435.77" waitingTime="1.00" waitingCount="1" stopTime="58.00" timeLoss="32.04" rerouteNo="0" devices="tripinfo_bus_100/101/400/412/418/428/430/433:1.0" vType="bus" speedFactor="1.00" vaporized=""/>
    <tripinfo id="0_37" depart="96.00" departLane="MRT_to_KB_003_1" departPos="2.65" departPosLat="0.00" departSpeed="0.00" departDelay="0.92" arrival="126.00" arrivalLane="KBJ_to_CMB_002_1" arrivalPos="146.55" arrivalPosLat="-0.00" arrivalSpeed="16.00" duration="30.00" routeLength="398.80" waitingTime="0.00" waitingCount="0" stopTime="0.00" timeLoss="5.68" rerouteNo="0" devices="tripinfo_0_37" vType="3_Wheeler" speedFactor="1.24" vaporized=""/>
    <tripinfo id="0_2" depart="8.00" departLane="MRT_to_KB_001_4" departPos="2.10" departPosLat="0.00" departSpeed="0.00" departDelay="0.71" arrival="130.00" arrivalLane="KBJ_to_P_2" arrivalPos="128.65" arrivalPosLat="0.00" arrivalSpeed="16.23" duration="122.00" routeLength="249.81" waitingTime="94.00" waitingCount="1" stopTime="0.00" timeLoss="106.63" rerouteNo="0" devices="tripinfo_0_2" vType="Motor_Cycle" speedFactor="1.19" vaporized=""/>
    <tripinfo id="0_24" depart="52.00" departLane="P_to_KBJ_1" departPos="4.30" departPosLat="0.00" departSpeed="0.00" departDelay="0.04" arrival="132.00" arrivalLane="KB_to_MRT_002_2" arrivalPos="130.27" arrivalPosLat="-0.45" arrivalSpeed="16.05" duration="80.00" routeLength="335.94" waitingTime="46.00" waitingCount="1" stopTime="0.00" timeLoss="56.68" rerouteNo="0" devices="tripinfo_0_24" vType="Car" speedFactor="0.99" vaporized=""/>
    <tripinfo id="0_21" depart="47.00" departLane="MRT_to_KB_003_3" departPos="6.35" departPosLat="0.00" departSpeed="0.00" departDelay="0.07" arrival="134.00" arrivalLane="KBJ_to_P_2" arrivalPos="128.65" arrivalPosLat="-0.57" arrivalSpeed="13.46" duration="87.00" routeLength="296.13" waitingTime="52.00" waitingCount="1" stopTime="0.00" timeLoss="63.97" rerouteNo="0" devices="tripinfo_0_21" vType="Goods_Vehicle" speedFactor="0.97" vaporized=""/>
    <tripinfo id="0_36" depart="89.00" departLane="MRT_to_KB_001_4" departPos="2.10" departPosLat="0.00" departSpeed="0.00" departDelay="0.67" arrival="134.00" arrivalLane="KBJ_to_P_2" arrivalPos="128.65" arrivalPosLat="1.10" arrivalSpeed="13.56" duration="45.00" routeLength="249.81" waitingTime="16.00" waitingCount="1" stopTime="0.00" timeLoss="28.26" rerouteNo="0" devices="tripinfo_0_36" vType="Motor_Cycle" speedFactor="1.09" vaporized=""/>
    <tripinfo id="0_44" depart="113.00" departLane="MRT_to_KB_001.37_5" departPos="5.40" departPosLat="0.00" departSpeed="0.00" departDelay="0.62" arrival="137.00" arrivalLane="KBJ_to_P_2" arrivalPos="128.65" arrivalPosLat="0.50" arrivalSpeed="15.14" duration="24.00" routeLength="197.72" waitingTime="0.00" waitingCount="0" stopTime="0.00" timeLoss="10.32" rerouteNo="0" devices="tripinfo_0_44" vType="Van" speedFactor="1.10" vaporized=""/>
    <tripinfo id="0_43" depart="112.00" departLane="MRT_to_KB_003_3" departPos="2.65" departPosLat="0.00" departSpeed="0.00" departDelay="0.95" arrival="140.00" arrivalLane="KBJ_to_P_2" arrivalPos="128.65" arrivalPosLat="0.25" arrivalSpeed="14.84" duration="28.00" routeLength="299.83" waitingTime="0.00" waitingCount="0" stopTime="0.00" timeLoss="7.77" rerouteNo="0" devices="tripinfo_0_43" vType="3_Wheeler" speedFactor="1.11" vaporized=""/>
    <tripinfo id="0_61" depart="151.00" departLane="MRT_to_KB_001.37_5" departPos="4.30" departPosLat="0.00" departSpeed="0.00" departDelay="0.55" arrival="171.00" arrivalLane="KBJ_to_P_2" arrivalPos="128.65" arrivalPosLat="0.50" arrivalSpeed="13.67" duration="20.00" routeLength="198.82" waitingTime="0.00" waitingCount="0" stopTime="0.00" timeLoss="5.04" rerouteNo="0" devices="tripinfo_0_61" vType="Car" speedFactor="1.00" vaporized=""/>
    <tripinfo id="bus_100/101/400/412/418/428/430/433:0.0" depart="0.00" departLane="MRT_to_KB_001_1" departPos="12.10" departPosLat="0.00" departSpeed="0.00" departDelay="0.00" arrival="183.00" arrivalLane="KBJ_to_CMB_002_1" arrivalPos="146.55" arrivalPosLat="0.00" arrivalSpeed="6.15" duration="183.00" routeLength="338.78" waitingTime="1.00" waitingCount="1" stopTime="117.00" timeLoss="44.32" rerouteNo="0" devices="tripinfo_bus_100/101/400/412/418/428/430/433:0.0" vType="bus" speedFactor="1.00" vaporized=""/>
    <tripinfo id="0_22" depart="49.00" departLane="P_to_KBJ_2" departPos="2.10" departPosLat="0.00" departSpeed="0.00" departDelay="0.12" arrival="196.00" arrivalLane="KBJ_to_CMB_002_3" arrivalPos="146.55" arrivalPosLat="0.00" arrivalSpeed="17.37" duration="147.00" routeLength="391.01" waitingTime="114.00" waitingCount="1" stopTime="0.00" timeLoss="123.33" rerouteNo="0" devices="tripinfo_0_22" vType="Motor_Cycle" speedFactor="1.13" vaporized=""/>
    <tripinfo id="0_54" depart="132.00" departLane="P_to_KBJ_2" departPos="5.40" departPosLat="0.00" departSpeed="0.00" departDelay="0.31" arrival="200.00" arrivalLane="KBJ_to_CMB_002_3" arrivalPos="146.55" arrivalPosLat="-0.60" arrivalSpeed="16.40" duration="68.00" routeLength="387.71" waitingTime="31.00" waitingCount="1" stopTime="0.00" timeLoss="41.61" rerouteNo="0" devices="tripinfo_0_54" vType="Van" speedFactor="0.99" vaporized=""/>
    <tripinfo id="0_73" depart="167.00" departLane="P_to_KBJ_2" departPos="2.10" departPosLat="0.00" departSpeed="0.00" departDelay="0.69" arrival="203.00" arrivalLane="KBJ_to_CMB_002_3" arrivalPos="146.55" arrivalPosLat="-1.20" arrivalSpeed="15.27" duration="36.00" routeLength="391.01" waitingTime="0.00" waitingCount="0" stopTime="0.00" timeLoss="7.73" rerouteNo="0" devices="tripinfo_0_73" vType="Motor_Cycle" speedFactor="0.94" vaporized=""/>
    <tripinfo id="0_76" depart="173.00" departLane="P_to_KBJ_2" departPos="2.65" departPosLat="0.00" departSpeed="0.00" departDelay="0.36" arrival="204.00" arrivalLane="KBJ_to_CMB_002_3" arrivalPos="146.55" arrivalPosLat="0.30" arrivalSpeed="15.70" duration="31.00" routeLength="390.46" waitingTime="0.00" waitingCount="0" stopTime="0.00" timeLoss="6.09" rerouteNo="0" devices="tripinfo_0_76" vType="3_Wheeler" speedFactor="1.08" vaporized=""/>
    <tripinfo id="0_85" depart="188.00" departLane="P_to_KBJ_2" departPos="6.35" departPosLat="0.00" departSpeed="0.00" departDelay="0.24" arrival="221.00" arrivalLane="KBJ_to_CMB_002_3" arrivalPos="146.55" arrivalPosLat="-0.47" arrivalSpeed="13.81" duration="33.00" routeLength="386.76" waitingTime="0.00" waitingCount="0" stopTime="0.00" timeLoss="4.54" rerouteNo="0" devices="tripinfo_0_85" vType="Goods_Vehicle" speedFactor="1.06" vaporized=""/>
    <tripinfo id="0_98" depart="211.00" departLane="P_to_KBJ_2" departPos="2.65" departPosLat="0.00" departSpeed="0.00" departDelay="0.41" arrival="233.00" arrivalLane="KBJ_to_CMB_001_4" arrivalPos="57.78" arrivalPosLat="0.00" arrivalSpeed="15.51" duration="22.00" routeLength="225.30" waitingTime="0.00" waitingCount="0" stopTime="0.00" timeLoss="4.71" rerouteNo="0" devices="tripinfo_0_98" vType="3_Wheeler" speedFactor="0.93" vaporized=""/>
    <tripinfo id="0_45" depart="113.00" departLane="MRT_to_KB_003_2" departPos="2.65" departPosLat="0.00" departSpeed="0.00" departDelay="0.33" arrival="253.00" arrivalLane="KBJ_to_CMB_001_4" arrivalPos="57.78" arrivalPosLat="0.10" arrivalSpeed="14.73" duration="140.00" routeLength="233.64" waitingTime="110.00" waitingCount="1" stopTime="0.00" timeLoss="121.91" rerouteNo="0" devices="tripinfo_0_45" vType="3_Wheeler" speedFactor="0.91" vaporized=""/>
    <tripinfo id="0_58" depart="143.00" departLane="MRT_to_KB_001.37_2" departPos="4.30" departPosLat="0.00" departSpeed="0.00" departDelay="0.75" arrival="256.00" arrivalLane="KBJ_to_CMB_001_4" arrivalPos="57.78" arrivalPosLat="-0.60" arrivalSpeed="17.88" duration="113.00" routeLength="132.63" waitingTime="90.00" waitingCount="2" stopTime="0.00" timeLoss="104.72" rerouteNo="0" devices="tripinfo_0_58" vType="Car" speedFactor="1.12" vaporized=""/>
    <tripinfo id="0_62" depart="151.00" departLane="MRT_to_KB_001.37_2" departPos="2.65" departPosLat="0.00" departSpeed="0.00" departDelay="0.21" arrival="256.00" arrivalLane="KBJ_to_CMB_001_2" arrivalPos="57.78" arrivalPosLat="-0.00" arrivalSpeed="10.16" duration="105.00" routeLength="134.28" waitingTime="82.00" waitingCount="1" stopTime="0.00" timeLoss="96.26" rerouteNo="0" devices="tripinfo_0_62" vType="3_Wheeler" speedFactor="1.01" vaporized=""/>
    <tripinfo id="0_91" depart="194.00" departLane="CMB_to_KBJ_002_2" departPos="2.10" departPosLat="0.00" departSpeed="0.00" departDelay="0.36" arrival="256.00" arrivalLane="KB_to_MRT_002_3" arrivalPos="130.27" arrivalPosLat="1.25" arrivalSpeed="15.49" duration="62.00" routeLength="295.16" waitingTime="25.00" waitingCount="1" stopTime="0.00" timeLoss="43.74" rerouteNo="0" devices="tripinfo_0_91" vType="Motor_Cycle" speedFactor="0.97" vaporized=""/>
    <tripinfo id="0_39" depart="102.00" departLane="CMB_to_KBJ_001_3" departPos="2.65" departPosLat="0.00" departSpeed="0.00" departDelay="0.60" arrival="257.00" arrivalLane="KB_to_MRT_002_2" arrivalPos="130.27" arrivalPosLat="0.00" arrivalSpeed="16.08" duration="155.00" routeLength="251.49" waitingTime="129.00" waitingCount="1" stopTime="0.00" timeLoss="139.76" rerouteNo="0" devices="tripinfo_0_39" vType="3_Wheeler" speedFactor="0.99" vaporized=""/>
    <tripinfo id="0_40" depart="107.00" departLane="MRT_to_KB_001.37_4" departPos="4.30" departPosLat="0.00" departSpeed="0.00" departDelay="0.21" arrival="257.00" arrivalLane="KBJ_to_CMB_002_3" arrivalPos="146.55" arrivalPosLat="-0.60" arrivalSpeed="18.12" duration="150.00" routeLength="297.79" waitingTime="122.00" waitingCount="1" stopTime="0.00" timeLoss="132.98" rerouteNo="0" devices="tripinfo_0_40" vType="Car" speedFactor="1.10" vaporized=""/>
    <tripinfo id="0_65" depart="155.00" departLane="CMB_to_KBJ_001_4" departPos="2.10" departPosLat="0.00" departSpeed="0.00" departDelay="0.11" arrival="258.00" arrivalLane="KB_to_MRT_002_3" arrivalPos="130.27" arrivalPosLat="-0.75" arrivalSpeed="14.40" duration="103.00" routeLength="252.04" waitingTime="75.00" waitingCount="1" stopTime="0.00" timeLoss="85.33" rerouteNo="0" devices="tripinfo_0_65" vType="Motor_Cycle" speedFactor="0.89" vaporized=""/>
    <tripinfo id="0_42" depart="109.00" departLane="MRT_to_KB_001.37_3" departPos="4.30" departPosLat="0.00" departSpeed="0.00" departDelay="0.94" arrival="259.00" arrivalLane="KBJ_to_CMB_002_1" arrivalPos="146.55" arrivalPosLat="1.70" arrivalSpeed="14.97" duration="150.00" routeLength="297.79" waitingTime="121.00" waitingCount="1" stopTime="0.00" timeLoss="129.49" rerouteNo="0" devices="tripinfo_0_42" vType="Car" speedFactor="0.90" vaporized=""/>
    <tripinfo id="0_49" depart="121.00" departLane="MRT_to_KB_001_2" departPos="2.10" departPosLat="0.00" departSpeed="0.00" departDelay="1.45" arrival="259.00" arrivalLane="KBJ_to_CMB_002_1" arrivalPos="146.55" arrivalPosLat="-1.30" arrivalSpeed="15.83" duration="138.00" routeLength="348.78" waitingTime="104.00" waitingCount="1" stopTime="0.00" timeLoss="115.39" rerouteNo="0" devices="tripinfo_0_49" vType="Motor_Cycle" speedFactor="0.99" vaporized=""/>
    <tripinfo id="0_69" depart="164.00" departLane="MRT_to_KB_001.37_4" departPos="2.10" departPosLat="0.00" departSpeed="0.00" departDelay="1.81" arrival="259.00" arrivalLane="KBJ_to_CMB_001_4" arrivalPos="57.78" arrivalPosLat="0.20" arrivalSpeed="14.09" duration="95.00" routeLength="134.83" waitingTime="75.00" waitingCount="1" stopTime="0.00" timeLoss="85.03" rerouteNo="0" devices="tripinfo_0_69" vType="Motor_Cycle" speedFactor="0.90" vaporized=""/>
    <tripinfo id="0_41" depart="108.00" departLane="MRT_to_KB_003_1" departPos="2.65" departPosLat="0.00" departSpeed="0.00" departDelay="0.15" arrival="261.00" arrivalLane="KBJ_to_CMB_002_3" arrivalPos="146.55" arrivalPosLat="-0.40" arrivalSpeed="16.34" duration="153.00" routeLength="398.80" waitingTime="115.00" waitingCount="1" stopTime="0.00" timeLoss="128.49" rerouteNo="0" devices="tripinfo_0_41" vType="3_Wheeler" speedFactor="1.12" vaporized=""/>
    <tripinfo id="0_46" depart="116.00" departLane="MRT_to_KB_001.37_2" departPos="2.10" departPosLat="0.00" departSpeed="0.00" departDelay="0.47" arrival="261.00" arrivalLane="KBJ_to_CMB_002_2" arrivalPos="146.55" arrivalPosLat="0.65" arrivalSpeed="14.74" duration="145.00" routeLength="299.99" waitingTime="115.00" waitingCount="1" stopTime="0.00" timeLoss="124.63" rerouteNo="0" devices="tripinfo_0_46" vType="Motor_Cycle" speedFactor="0.95" vaporized=""/>
    <tripinfo id="0_70" depart="164.00" departLane="MRT_to_KB_001.37_3" departPos="5.40" departPosLat="0.00" departSpeed="0.00" departDelay="1.21" arrival="261.00" arrivalLane="KBJ_to_CMB_001_4" arrivalPos="57.78" arrivalPosLat="0.60" arrivalSpeed="13.75" duration="97.00" routeLength="131.53" waitingTime="75.00" waitingCount="2" stopTime="0.00" timeLoss="86.48" rerouteNo="0" devices="tripinfo_0_70" vType="Van" speedFactor="0.83" vaporized=""/>
    <tripinfo id="0_48" depart="117.00" departLane="MRT_to_KB_001_2" departPos="2.65" departPosLat="0.00" departSpeed="0.00" departDelay="0.55" arrival="262.00" arrivalLane="KBJ_to_CMB_002_1" arrivalPos="146.55" arrivalPosLat="-0.00" arrivalSpeed="14.31" duration="145.00" routeLength="348.23" waitingTime="109.00" waitingCount="1" stopTime="0.00" timeLoss="120.68" rerouteNo="0" devices="tripinfo_0_48" vType="3_Wheeler" speedFactor="0.91" vaporized=""/>
    <tripinfo id="0_52" depart="129.00" departLane="MRT_to_KB_001_2" departPos="4.30" departPosLat="0.00" departSpeed="0.00" departDelay="0.54" arrival="262.00" arrivalLane="KBJ_to_CMB_002_2" arrivalPos="146.55" arrivalPosLat="-0.45" arrivalSpeed="17.29" duration="133.00" routeLength="346.58" waitingTime="100.00" waitingCount="1" stopTime="0.00" timeLoss="112.09" rerouteNo="0" devices="tripinfo_0_52" vType="Car" speedFactor="1.06" vaporized=""/>
    <tripinfo id="0_51" depart="126.00" departLane="MRT_to_KB_003_1" departPos="2.10" departPosLat="0.00" departSpeed="0.00" departDelay="0.12" arrival="264.00" arrivalLane="KBJ_to_CMB_002_2" arrivalPos="146.55" arrivalPosLat="1.05" arrivalSpeed="16.10" duration="138.00" routeLength="399.35" waitingTime="99.00" waitingCount="1" stopTime="0.00" timeLoss="112.33" rerouteNo="0" devices="tripinfo_0_51" vType="Motor_Cycle" speedFactor="1.02" vaporized=""/>