<?xml version="1.0" encoding="UTF-8"?>

<!-- generated on 2025-08-05 09:05:31 by Eclipse SUMO GUI Version 1.24.0
<sumoConfiguration xmlns:xsi="http://www.w3.org/2001/XMLSchema-instance" xsi:noNamespaceSchemaLocation="http://sumo.dlr.de/xsd/sumoConfiguration.xsd">

    <input>
        <net-file value="C:\Users\Lochana Minuwansala\Downloads\Simulation  model\Katubedda Junction\network/katubedda_junction_network.net.xml"/>
        <route-files value="C:\Users\Lochana Minuwansala\Downloads\Simulation  model\Katubedda Junction\demand/calibrated_demand_warmup.rou.xml,C:\Users\Lochana Minuwansala\Downloads\Simulation  model\Katubedda Junction\                             demand/calibrated_demand_6am_7am.rou.xml,C:\Users\Lochana Minuwansala\Downloads\Simulation  model\Katubedda Junction\                             demand/bus_demand.rou.xml"/>
        <additional-files value="C:\Users\Lochana Minuwansala\Downloads\Simulation  model\Katubedda Junction\additionals/traffic_lights_static.ttl.xml,C:\Users\Lochana Minuwansala\Downloads\Simulation  model\Katubedda Junction\                                  additionals/bus/bus_stops.add.xml,C:\Users\Lochana Minuwansala\Downloads\Simulation  model\Katubedda Junction\                                 additionals/vtype_dist_base.xml"/>
    </input>

    <output>
        <queue-output value="C:\Users\Lochana Minuwansala\Downloads\Simulation  model\Katubedda Junction\outputs/static_vehicle_data/static_vehicle_data.xml"/>
        <queue-output.period value="300"/>
        <tripinfo-output value="C:\Users\Lochana Minuwansala\Downloads\Simulation  model\Katubedda Junction\outputs/static_vehicle_data/tripinfo_static_vehicle_data.xml"/>
    </output>

    <processing>
        <lateral-resolution value="1.2"/>
        <collision.action value="none"/>
    </processing>

    <gui_only>
        <gui-settings-file value="C:\Users\Lochana Minuwansala\Downloads\Simulation  model\Katubedda Junction\additionals/satelite_image_bg.xml"/>
    </gui_only>

</sumoConfiguration>
-->

<tripinfos xmlns:xsi="http://www.w3.org/2001/XMLSchema-instance" xsi:noNamespaceSchemaLocation="http://sumo.dlr.de/xsd/tripinfo_file.xsd">
    <tripinfo id="0_1" depart="5.00" departLane="MRT_to_KB_001_2" departPos="2.10" departPosLat="0.00" departSpeed="0.00" departDelay="0.36" arrival="28.00" arrivalLane="KBJ_to_CMB_002_1" arrivalPos="146.55" arrivalPosLat="0.00" arrivalSpeed="18.93" duration="23.00" routeLength="348.78" waitingTime="0.00" waitingCount="0" stopTime="0.00" timeLoss="4.37" rerouteNo="0" devices="tripinfo_0_1" vType="Motor_Cycle" speedFactor="1.20" vaporized=""/>
    <tripinfo id="0_3" depart="8.00" departLane="CMB_to_KBJ_003_2" departPos="4.30" departPosLat="0.00" departSpeed="0.00" departDelay="0.39" arrival="30.00" arrivalLane="KB_to_MRT_001_1" arrivalPos="44.82" arrivalPosLat="0.55" arrivalSpeed="17.65" duration="22.00" routeLength="299.52" waitingTime="0.00" waitingCount="0" stopTime="0.00" timeLoss="4.36" rerouteNo="0" devices="tripinfo_0_3" vType="Car" speedFactor="1.08" vaporized=""/>
    <tripinfo id="0_8" depart="13.00" departLane="MRT_to_KB_003_1" departPos="4.30" departPosLat="0.00" departSpeed="0.00" departDelay="0.78" arrival="32.00" arrivalLane="KBJ_to_CMB_001_2" arrivalPos="57.78" arrivalPosLat="0.50" arrivalSpeed="17.79" duration="19.00" routeLength="231.99" waitingTime="0.00" waitingCount="0" stopTime="0.00" timeLoss="4.39" rerouteNo="0" devices="tripinfo_0_8" vType="Car" speedFactor="1.12" vaporized=""/>
    <tripinfo id="0_5" depart="10.00" departLane="MRT_to_KB_001_2" departPos="4.30" departPosLat="0.00" departSpeed="0.00" departDelay="0.85" arrival="36.00" arrivalLane="KBJ_to_CMB_002_1" arrivalPos="146.55" arrivalPosLat="-0.70" arrivalSpeed="16.12" duration="26.00" routeLength="346.58" waitingTime="0.00" waitingCount="0" stopTime="0.00" timeLoss="4.08" rerouteNo="0" devices="tripinfo_0_5" vType="Car" speedFactor="1.02" vaporized=""/>
    <tripinfo id="0_10" depart="14.00" departLane="MRT_to_KB_003_2" departPos="6.35" departPosLat="0.00" departSpeed="0.00" departDelay="0.20" arrival="36.00" arrivalLane="KBJ_to_CMB_001_3" arrivalPos="57.78" arrivalPosLat="-0.32" arrivalSpeed="13.85" duration="22.00" routeLength="229.94" waitingTime="0.00" waitingCount="0" stopTime="0.00" timeLoss="4.20" rerouteNo="0" devices="tripinfo_0_10" vType="Goods_Vehicle" speedFactor="0.96" vaporized=""/>
    <tripinfo id="0_11" depart="16.00" departLane="MRT_to_KB_003_1" departPos="4.30" departPosLat="0.00" departSpeed="0.00" departDelay="0.50" arrival="36.00" arrivalLane="KBJ_to_CMB_001_2" arrivalPos="57.78" arrivalPosLat="-0.70" arrivalSpeed="16.52" duration="20.00" routeLength="231.99" waitingTime="0.00" waitingCount="0" stopTime="0.00" timeLoss="4.33" rerouteNo="0" devices="tripinfo_0_11" vType="Car" speedFactor="1.04" vaporized=""/>
    <tripinfo id="0_0" depart="5.00" departLane="MRT_to_KB_003_1" departPos="5.40" departPosLat="0.00" departSpeed="0.00" departDelay="0.68" arrival="38.00" arrivalLane="KBJ_to_CMB_002_2" arrivalPos="146.55" arrivalPosLat="-0.45" arrivalSpeed="16.09" duration="33.00" routeLength="396.05" waitingTime="0.00" waitingCount="0" stopTime="0.00" timeLoss="5.86" rerouteNo="0" devices="tripinfo_0_0" vType="Van" speedFactor="0.98" vaporized=""/>
    <tripinfo id="0_7" depart="12.00" departLane="CMB_to_KBJ_002_2" departPos="2.10" departPosLat="0.00" departSpeed="0.00" departDelay="0.80" arrival="38.00" arrivalLane="KB_to_MRT_002_2" arrivalPos="130.27" arrivalPosLat="-1.20" arrivalSpeed="14.07" duration="26.00" routeLength="295.16" waitingTime="0.00" waitingCount="0" stopTime="0.00" timeLoss="6.58" rerouteNo="0" devices="tripinfo_0_7" vType="Motor_Cycle" speedFactor="0.92" vaporized=""/>
    <tripinfo id="0_6" depart="13.00" departLane="MRT_to_KB_001_2" departPos="2.65" departPosLat="0.00" departSpeed="0.00" departDelay="2.22" arrival="39.00" arrivalLane="KBJ_to_CMB_002_1" arrivalPos="146.55" arrivalPosLat="-0.00" arrivalSpeed="16.00" duration="26.00" routeLength="348.23" waitingTime="0.00" waitingCount="0" stopTime="0.00" timeLoss="4.59" rerouteNo="0" devices="tripinfo_0_6" vType="3_Wheeler" speedFactor="1.09" vaporized=""/>
    <tripinfo id="0_4" depart="8.00" departLane="MRT_to_KB_003_2" departPos="2.65" departPosLat="0.00" departSpeed="0.00" departDelay="0.05" arrival="41.00" arrivalLane="KBJ_to_CMB_002_2" arrivalPos="146.55" arrivalPosLat="0.45" arrivalSpeed="14.68" duration="33.00" routeLength="398.80" waitingTime="0.00" waitingCount="0" stopTime="0.00" timeLoss="4.70" rerouteNo="0" devices="tripinfo_0_4" vType="3_Wheeler" speedFactor="0.94" vaporized=""/>
    <tripinfo id="0_9" depart="14.00" departLane="CMB_to_KBJ_001_2" departPos="4.30" departPosLat="0.00" departSpeed="0.00" departDelay="0.41" arrival="45.00" arrivalLane="30093400_1" arrivalPos="127.33" arrivalPosLat="-0.55" arrivalSpeed="6.70" duration="31.00" routeLength="242.06" waitingTime="0.00" waitingCount="0" stopTime="0.00" timeLoss="5.45" rerouteNo="0" devices="tripinfo_0_9" vType="Car" speedFactor="0.90" vaporized=""/>
    <tripinfo id="0_17" depart="30.00" departLane="MRT_to_KB_003_1" departPos="4.30" departPosLat="0.00" departSpeed="0.00" departDelay="0.65" arrival="50.00" arrivalLane="KBJ_to_CMB_001_2" arrivalPos="57.78" arrivalPosLat="0.50" arrivalSpeed="16.75" duration="20.00" routeLength="231.99" waitingTime="0.00" waitingCount="0" stopTime="0.00" timeLoss="3.66" rerouteNo="0" devices="tripinfo_0_17" vType="Car" speedFactor="1.01" vaporized=""/>
    <tripinfo id="0_12" depart="22.00" departLane="MRT_to_KB_003_1" departPos="2.65" departPosLat="0.00" departSpeed="0.00" departDelay="0.83" arrival="55.00" arrivalLane="KBJ_to_CMB_002_2" arrivalPos="146.55" arrivalPosLat="0.45" arrivalSpeed="15.32" duration="33.00" routeLength="398.80" waitingTime="0.00" waitingCount="0" stopTime="0.00" timeLoss="5.26" rerouteNo="0" devices="tripinfo_0_12" vType="3_Wheeler" speedFactor="0.94" vaporized=""/>
    <tripinfo id="0_16" depart="30.00" departLane="MRT_to_KB_001.37_2" departPos="6.35" departPosLat="0.00" departSpeed="0.00" departDelay="0.85" arrival="56.00" arrivalLane="KBJ_to_CMB_002_1" arrivalPos="146.55" arrivalPosLat="-0.57" arrivalSpeed="13.85" duration="26.00" routeLength="295.74" waitingTime="0.00" waitingCount="0" stopTime="0.00" timeLoss="4.30" rerouteNo="0" devices="tripinfo_0_16" vType="Goods_Vehicle" speedFactor="0.94" vaporized=""/>
    <tripinfo id="0_15" depart="30.00" departLane="MRT_to_KB_001_2" departPos="2.10" departPosLat="0.00" departSpeed="0.00" departDelay="1.81" arrival="57.00" arrivalLane="KBJ_to_CMB_002_2" arrivalPos="146.55" arrivalPosLat="-0.25" arrivalSpeed="15.72" duration="27.00" routeLength="348.78" waitingTime="0.00" waitingCount="0" stopTime="0.00" timeLoss="4.80" rerouteNo="0" devices="tripinfo_0_15" vType="Motor_Cycle" speedFactor="1.03" vaporized=""/>
    <tripinfo id="0_14" depart="26.00" departLane="MRT_to_KB_001_2" departPos="5.40" departPosLat="0.00" departSpeed="0.00" departDelay="0.40" arrival="58.00" arrivalLane="KBJ_to_CMB_002_1" arrivalPos="146.55" arrivalPosLat="-0.70" arrivalSpeed="16.42" duration="32.00" routeLength="345.48" waitingTime="0.00" waitingCount="0" stopTime="0.00" timeLoss="9.50" rerouteNo="0" devices="tripinfo_0_14" vType="Van" speedFactor="1.01" vaporized=""/>
    <tripinfo id="0_18" depart="35.00" departLane="MRT_to_KB_001.37_4" departPos="4.30" departPosLat="0.00" departSpeed="0.00" departDelay="0.18" arrival="60.00" arrivalLane="KBJ_to_CMB_002_3" arrivalPos="146.55" arrivalPosLat="-0.60" arrivalSpeed="14.25" duration="25.00" routeLength="297.79" waitingTime="0.00" waitingCount="0" stopTime="0.00" timeLoss="3.66" rerouteNo="0" devices="tripinfo_0_18" vType="Car" speedFactor="0.87" vaporized=""/>
    <tripinfo id="0_20" depart="43.00" departLane="MRT_to_KB_003_2" departPos="4.30" departPosLat="0.00" departSpeed="0.00" departDelay="0.97" arrival="62.00" arrivalLane="KBJ_to_CMB_001_3" arrivalPos="57.78" arrivalPosLat="-0.45" arrivalSpeed="18.62" duration="19.00" routeLength="231.99" waitingTime="0.00" waitingCount="0" stopTime="0.00" timeLoss="4.58" rerouteNo="0" devices="tripinfo_0_20" vType="Car" speedFactor="1.13" vaporized=""/>
    <tripinfo id="0_13" depart="24.00" departLane="CMB_to_KBJ_003_2" departPos="2.65" departPosLat="0.00" departSpeed="0.00" departDelay="0.46" arrival="65.00" arrivalLane="30093400_1" arrivalPos="127.33" arrivalPosLat="0.25" arrivalSpeed="8.61" duration="41.00" routeLength="437.44" waitingTime="0.00" waitingCount="0" stopTime="0.00" timeLoss="7.21" rerouteNo="0" devices="tripinfo_0_13" vType="3_Wheeler" speedFactor="1.08" vaporized=""/>
    <tripinfo id="0_25" depart="52.00" departLane="MRT_to_KB_001.37_2" departPos="4.30" departPosLat="0.00" departSpeed="0.00" departDelay="0.01" arrival="65.00" arrivalLane="KBJ_to_CMB_001_2" arrivalPos="57.78" arrivalPosLat="0.50" arrivalSpeed="15.83" duration="13.00" routeLength="132.63" waitingTime="0.00" waitingCount="0" stopTime="0.00" timeLoss="3.26" rerouteNo="0" devices="tripinfo_0_25" vType="Car" speedFactor="0.97" vaporized=""/>
    <tripinfo id="0_26" depart="54.00" departLane="MRT_to_KB_001.37_4" departPos="5.40" departPosLat="0.00" departSpeed="0.00" departDelay="0.87" arrival="67.00" arrivalLane="KBJ_to_CMB_001_4" arrivalPos="57.78" arrivalPosLat="-0.60" arrivalSpeed="16.51" duration="13.00" routeLength="131.53" waitingTime="0.00" waitingCount="0" stopTime="0.00" timeLoss="4.42" rerouteNo="0" devices="tripinfo_0_26" vType="Van" speedFactor="1.02" vaporized=""/>
    <tripinfo id="0_19" depart="39.00" departLane="MRT_to_KB_003_1" departPos="4.30" departPosLat="0.00" departSpeed="0.00" departDelay="0.88" arrival="68.00" arrivalLane="KBJ_to_CMB_002_1" arrivalPos="146.55" arrivalPosLat="0.50" arrivalSpeed="17.12" duration="29.00" routeLength="397.15" waitingTime="0.00" waitingCount="0" stopTime="0.00" timeLoss="3.80" rerouteNo="0" devices="tripinfo_0_19" vType="Car" speedFactor="1.03" vaporized=""/>
    <tripinfo id="0_23" depart="51.00" departLane="CMB_to_KBJ_001_2" departPos="2.10" departPosLat="0.00" departSpeed="0.00" departDelay="0.15" arrival="79.00" arrivalLane="30093400_1" arrivalPos="127.33" arrivalPosLat="0.00" arrivalSpeed="8.00" duration="28.00" routeLength="244.26" waitingTime="0.00" waitingCount="0" stopTime="0.00" timeLoss="6.76" rerouteNo="0" devices="tripinfo_0_23" vType="Motor_Cycle" speedFactor="1.12" vaporized=""/>
    <tripinfo id="0_27" depart="59.00" departLane="MRT_to_KB_001_2" departPos="2.10" departPosLat="0.00" departSpeed="0.00" departDelay="0.43" arrival="87.00" arrivalLane="KBJ_to_CMB_002_1" arrivalPos="146.55" arrivalPosLat="0.00" arrivalSpeed="15.56" duration="28.00" routeLength="348.78" waitingTime="0.00" waitingCount="0" stopTime="0.00" timeLoss="4.52" rerouteNo="0" devices="tripinfo_0_27" vType="Motor_Cycle" speedFactor="0.94" vaporized=""/>
    <tripinfo id="0_28" depart="66.00" departLane="MRT_to_KB_001.37_3" departPos="2.10" departPosLat="0.00" departSpeed="0.00" departDelay="1.25" arrival="87.00" arrivalLane="KBJ_to_CMB_002_2" arrivalPos="146.55" arrivalPosLat="0.00" arrivalSpeed="17.73" duration="21.00" routeLength="299.99" waitingTime="0.00" waitingCount="0" stopTime="0.00" timeLoss="3.94" rerouteNo="0" devices="tripinfo_0_28" vType="Motor_Cycle" speedFactor="1.10" vaporized=""/>
    <tripinfo id="0_29" depart="75.00" departLane="MRT_to_KB_001.37_2" departPos="6.35" departPosLat="0.00" departSpeed="0.00" departDelay="0.68" arrival="101.00" arrivalLane="KBJ_to_CMB_002_1" arrivalPos="146.55" arrivalPosLat="-0.57" arrivalSpeed="13.86" duration="26.00" routeLength="295.74" waitingTime="0.00" waitingCount="0" stopTime="0.00" timeLoss="4.25" rerouteNo="0" devices="tripinfo_0_29" vType="Goods_Vehicle" speedFactor="0.92" vaporized=""/>
    <tripinfo id="0_32" depart="84.00" departLane="MRT_to_KB_001_2" departPos="4.30" departPosLat="0.00" departSpeed="0.00" departDelay="0.02" arrival="109.00" arrivalLane="KBJ_to_CMB_002_2" arrivalPos="146.55" arrivalPosLat="-0.45" arrivalSpeed="17.00" duration="25.00" routeLength="346.58" waitingTime="0.00" waitingCount="0" stopTime="0.00" timeLoss="3.71" rerouteNo="0" devices="tripinfo_0_32" vType="Car" speedFactor="1.04" vaporized=""/>
    <tripinfo id="0_35" depart="89.00" departLane="MRT_to_KB_003_1" departPos="6.35" departPosLat="0.00" departSpeed="0.00" departDelay="0.92" arrival="111.00" arrivalLane="KBJ_to_CMB_001_2" arrivalPos="57.78" arrivalPosLat="-0.57" arrivalSpeed="13.75" duration="22.00" routeLength="229.94" waitingTime="0.00" waitingCount="0" stopTime="0.00" timeLoss="4.49" rerouteNo="0" devices="tripinfo_0_35" vType="Goods_Vehicle" speedFactor="1.01" vaporized=""/>
    <tripinfo id="0_33" depart="85.00" departLane="MRT_to_KB_001.37_2" departPos="2.65" departPosLat="0.00" departSpeed="0.00" departDelay="0.77" arrival="114.00" arrivalLane="KBJ_to_CMB_002_1" arrivalPos="146.55" arrivalPosLat="-0.00" arrivalSpeed="11.87" duration="29.00" routeLength="299.44" waitingTime="0.00" waitingCount="0" stopTime="0.00" timeLoss="4.26" rerouteNo="0" devices="tripinfo_0_33" vType="3_Wheeler" speedFactor="0.77" vaporized=""/>
    <tripinfo id="0_34" depart="86.00" departLane="MRT_to_KB_001_3" departPos="4.30" departPosLat="0.00" departSpeed="0.00" departDelay="0.04" arrival="115.00" arrivalLane="KBJ_to_CMB_002_2" arrivalPos="146.55" arrivalPosLat="-0.45" arrivalSpeed="14.51" duration="29.00" routeLength="346.58" waitingTime="0.00" waitingCount="0" stopTime="0.00" timeLoss="4.05" rerouteNo="0" devices="tripinfo_0_34" vType="Car" speedFactor="0.90" vaporized=""/>
    <tripinfo id="0_38" depart="97.00" departLane="MRT_to_KB_003_2" departPos="2.10" departPosLat="0.00" departSpeed="0.00" departDelay="0.11" arrival="115.00" arrivalLane="KBJ_to_CMB_001_3" arrivalPos="57.78" arrivalPosLat="1.15" arrivalSpeed="19.04" duration="18.00" routeLength="234.19" waitingTime="0.00" waitingCount="0" stopTime="0.00" timeLoss="4.10" rerouteNo="0" devices="tripinfo_0_38" vType="Motor_Cycle" speedFactor="1.17" vaporized=""/>
    <tripinfo id="bus_100/101/400/412/418/428/430/433:1.0" depart="0.00" departLane="CMB_to_KBJ_003_1" departPos="12.10" departPosLat="0.00" departSpeed="0.00" departDelay="0.00" arrival="117.00" arrivalLane="KB_to_MRT_002_1" arrivalPos="130.27" arrivalPosLat="0.00" arrivalSpeed="12.52" duration="117.00" routeLength="435.77" waitingTime="0.00" waitingCount="0" stopTime="60.00" timeLoss="30.72" rerouteNo="0" devices="tripinfo_bus_100/101/400/412/418/428/430/433:1.0" vType="bus" speedFactor="1.00" vaporized=""/>
    <tripinfo id="0_37" depart="96.00" departLane="MRT_to_KB_003_1" departPos="2.10" departPosLat="0.00" departSpeed="0.00" departDelay="0.92" arrival="125.00" arrivalLane="KBJ_to_CMB_002_2" arrivalPos="146.55" arrivalPosLat="-0.25" arrivalSpeed="17.49" duration="29.00" routeLength="399.35" waitingTime="0.00" waitingCount="0" stopTime="0.00" timeLoss="4.23" rerouteNo="0" devices="tripinfo_0_37" vType="Motor_Cycle" speedFactor="1.06" vaporized=""/>
    <tripinfo id="0_2" depart="8.00" departLane="MRT_to_KB_001_4" departPos="2.10" departPosLat="0.00" departSpeed="0.00" departDelay="0.71" arrival="130.00" arrivalLane="KBJ_to_P_2" arrivalPos="128.65" arrivalPosLat="0.00" arrivalSpeed="13.64" duration="122.00" routeLength="249.81" waitingTime="93.00" waitingCount="1" stopTime="0.00" timeLoss="103.85" rerouteNo="0" devices="tripinfo_0_2" vType="Motor_Cycle" speedFactor="1.05" vaporized=""/>
    <tripinfo id="0_24" depart="52.00" departLane="P_to_KBJ_1" departPos="2.10" departPosLat="0.00" departSpeed="0.00" departDelay="0.04" arrival="132.00" arrivalLane="KB_to_MRT_002_1" arrivalPos="130.27" arrivalPosLat="1.00" arrivalSpeed="15.57" duration="80.00" routeLength="338.14" waitingTime="47.00" waitingCount="1" stopTime="0.00" timeLoss="56.96" rerouteNo="0" devices="tripinfo_0_24" vType="Motor_Cycle" speedFactor="0.99" vaporized=""/>
    <tripinfo id="0_21" depart="47.00" departLane="MRT_to_KB_003_3" departPos="4.30" departPosLat="0.00" departSpeed="0.00" departDelay="0.07" arrival="133.00" arrivalLane="KBJ_to_P_2" arrivalPos="128.65" arrivalPosLat="-0.70" arrivalSpeed="11.94" duration="86.00" routeLength="298.18" waitingTime="52.00" waitingCount="1" stopTime="0.00" timeLoss="61.39" rerouteNo="0" devices="tripinfo_0_21" vType="Car" speedFactor="0.89" vaporized=""/>
    <tripinfo id="0_36" depart="89.00" departLane="MRT_to_KB_001_4" departPos="5.40" departPosLat="0.00" departSpeed="0.00" departDelay="0.67" arrival="137.00" arrivalLane="KBJ_to_P_2" arrivalPos="128.65" arrivalPosLat="0.50" arrivalSpeed="12.08" duration="48.00" routeLength="246.51" waitingTime="15.00" waitingCount="1" stopTime="0.00" timeLoss="26.97" rerouteNo="0" devices="tripinfo_0_36" vType="Van" speedFactor="0.88" vaporized=""/>
    <tripinfo id="0_44" depart="113.00" departLane="MRT_to_KB_001.37_5" departPos="4.30" departPosLat="0.00" departSpeed="0.00" departDelay="0.62" arrival="139.00" arrivalLane="KBJ_to_P_2" arrivalPos="128.65" arrivalPosLat="-0.70" arrivalSpeed="14.11" duration="26.00" routeLength="198.82" waitingTime="0.00" waitingCount="0" stopTime="0.00" timeLoss="10.88" rerouteNo="0" devices="tripinfo_0_44" vType="Car" speedFactor="1.02" vaporized=""/>
    <tripinfo id="0_43" depart="112.00" departLane="MRT_to_KB_003_3" departPos="2.65" departPosLat="0.00" departSpeed="0.00" departDelay="0.95" arrival="141.00" arrivalLane="KBJ_to_P_2" arrivalPos="128.65" arrivalPosLat="0.00" arrivalSpeed="12.70" duration="29.00" routeLength="299.83" waitingTime="0.00" waitingCount="0" stopTime="0.00" timeLoss="5.48" rerouteNo="0" devices="tripinfo_0_43" vType="3_Wheeler" speedFactor="0.96" vaporized=""/>
    <tripinfo id="0_61" depart="151.00" departLane="MRT_to_KB_001.37_5" departPos="2.10" departPosLat="0.00" departSpeed="0.00" departDelay="0.55" arrival="171.00" arrivalLane="KBJ_to_P_2" arrivalPos="128.65" arrivalPosLat="0.00" arrivalSpeed="13.95" duration="20.00" routeLength="201.02" waitingTime="0.00" waitingCount="0" stopTime="0.00" timeLoss="5.68" rerouteNo="0" devices="tripinfo_0_61" vType="Motor_Cycle" speedFactor="1.08" vaporized=""/>
    <tripinfo id="bus_100/101/400/412/418/428/430/433:0.0" depart="0.00" departLane="MRT_to_KB_001_1" departPos="12.10" departPosLat="0.00" departSpeed="0.00" departDelay="0.00" arrival="183.00" arrivalLane="KBJ_to_CMB_002_1" arrivalPos="146.55" arrivalPosLat="0.00" arrivalSpeed="5.84" duration="183.00" routeLength="338.78" waitingTime="1.00" waitingCount="1" stopTime="119.00" timeLoss="42.47" rerouteNo="0" devices="tripinfo_bus_100/101/400/412/418/428/430/433:0.0" vType="bus" speedFactor="1.00" vaporized=""/>
    <tripinfo id="0_22" depart="49.00" departLane="P_to_KBJ_2" departPos="2.10" departPosLat="0.00" departSpeed="0.00" departDelay="0.12" arrival="196.00" arrivalLane="KBJ_to_CMB_002_3" arrivalPos="146.55" arrivalPosLat="0.00" arrivalSpeed="18.83" duration="147.00" routeLength="391.01" waitingTime="112.00" waitingCount="1" stopTime="0.00" timeLoss="123.88" rerouteNo="0" devices="tripinfo_0_22" vType="Motor_Cycle" speedFactor="1.15" vaporized=""/>
    <tripinfo id="0_54" depart="132.00" departLane="P_to_KBJ_2" departPos="4.30" departPosLat="0.00" departSpeed="0.00" departDelay="0.31" arrival="198.00" arrivalLane="KBJ_to_CMB_002_3" arrivalPos="146.55" arrivalPosLat="-0.60" arrivalSpeed="17.09" duration="66.00" routeLength="388.81" waitingTime="31.00" waitingCount="1" stopTime="0.00" timeLoss="41.63" rerouteNo="0" devices="tripinfo_0_54" vType="Car" speedFactor="1.06" vaporized=""/>
    <tripinfo id="0_73" depart="167.00" departLane="P_to_KBJ_2" departPos="2.65" departPosLat="0.00" departSpeed="0.00" departDelay="0.69" arrival="201.00" arrivalLane="KBJ_to_CMB_002_3" arrivalPos="146.55" arrivalPosLat="0.00" arrivalSpeed="16.17" duration="34.00" routeLength="390.46" waitingTime="0.00" waitingCount="0" stopTime="0.00" timeLoss="9.07" rerouteNo="0" devices="tripinfo_0_73" vType="3_Wheeler" speedFactor="1.14" vaporized=""/>
    <tripinfo id="0_76" depart="173.00" departLane="P_to_KBJ_2" departPos="4.30" departPosLat="0.00" departSpeed="0.00" departDelay="0.36" arrival="202.00" arrivalLane="KBJ_to_CMB_002_3" arrivalPos="146.55" arrivalPosLat="-0.60" arrivalSpeed="17.62" duration="29.00" routeLength="388.81" waitingTime="0.00" waitingCount="0" stopTime="0.00" timeLoss="5.02" rerouteNo="0" devices="tripinfo_0_76" vType="Car" speedFactor="1.07" vaporized=""/>
    <tripinfo id="0_85" depart="188.00" departLane="P_to_KBJ_2" departPos="2.10" departPosLat="0.00" departSpeed="0.00" departDelay="0.24" arrival="221.00" arrivalLane="KBJ_to_CMB_002_3" arrivalPos="146.55" arrivalPosLat="0.00" arrivalSpeed="15.95" duration="33.00" routeLength="391.01" waitingTime="0.00" waitingCount="0" stopTime="0.00" timeLoss="5.91" rerouteNo="0" devices="tripinfo_0_85" vType="Motor_Cycle" speedFactor="0.97" vaporized=""/>
    <tripinfo id="0_98" depart="211.00" departLane="P_to_KBJ_2" departPos="4.30" departPosLat="0.00" departSpeed="0.00" departDelay="0.41" arrival="231.00" arrivalLane="KBJ_to_CMB_001_4" arrivalPos="57.78" arrivalPosLat="-0.60" arrivalSpeed="16.49" duration="20.00" routeLength="223.65" waitingTime="0.00" waitingCount="0" stopTime="0.00" timeLoss="4.27" rerouteNo="0" devices="tripinfo_0_98" vType="Car" speedFactor="1.03" vaporized=""/>
    <tripinfo id="0_45" depart="113.00" departLane="MRT_to_KB_003_2" departPos="4.30" departPosLat="0.00" departSpeed="0.00" departDelay="0.33" arrival="251.00" arrivalLane="KBJ_to_CMB_001_4" arrivalPos="57.78" arrivalPosLat="-0.60" arrivalSpeed="15.88" duration="138.00" routeLength="231.99" waitingTime="107.00" waitingCount="2" stopTime="0.00" timeLoss="121.37" rerouteNo="0" devices="tripinfo_0_45" vType="Car" speedFactor="1.00" vaporized=""/>
    <tripinfo id="0_64" depart="154.00" departLane="MRT_to_KB_003_1" departPos="4.30" departPosLat="0.00" departSpeed="0.00" departDelay="0.60" arrival="252.00" arrivalLane="KBJ_to_CMB_001_2" arrivalPos="57.78" arrivalPosLat="-0.70" arrivalSpeed="14.28" duration="98.00" routeLength="231.99" waitingTime="69.00" waitingCount="2" stopTime="0.00" timeLoss="82.17" rerouteNo="0" devices="tripinfo_0_64" vType="Car" speedFactor="1.01" vaporized=""/>
    <tripinfo id="0_69" depart="165.00" departLane="MRT_to_KB_001.37_2" departPos="4.30" departPosLat="0.00" departSpeed="0.00" departDelay="2.81" arrival="254.00" arrivalLane="KBJ_to_CMB_001_2" arrivalPos="57.78" arrivalPosLat="-0.70" arrivalSpeed="13.56" duration="89.00" routeLength="132.63" waitingTime="66.00" waitingCount="2" stopTime="0.00" timeLoss="78.70" rerouteNo="0" devices="tripinfo_0_69" vType="Car" speedFactor="0.86" vaporized=""/>
    <tripinfo id="0_39" depart="102.00" departLane="CMB_to_KBJ_001_3" departPos="2.10" departPosLat="0.00" departSpeed="0.00" departDelay="0.60" arrival="255.00" arrivalLane="KB_to_MRT_002_2" arrivalPos="130.27" arrivalPosLat="0.00" arrivalSpeed="16.74" duration="153.00" routeLength="252.04" waitingTime="128.00" waitingCount="1" stopTime="0.00" timeLoss="138.33" rerouteNo="0" devices="tripinfo_0_39" vType="Motor_Cycle" speedFactor="1.05" vaporized=""/>
    <tripinfo id="0_58" depart="143.00" departLane="MRT_to_KB_001.37_2" departPos="4.30" departPosLat="0.00" departSpeed="0.00" departDelay="0.75" arrival="256.00" arrivalLane="KBJ_to_CMB_001_3" arrivalPos="57.78" arrivalPosLat="-0.45" arrivalSpeed="16.91" duration="113.00" routeLength="132.63" waitingTime="93.00" waitingCount="1" stopTime="0.00" timeLoss="104.59" rerouteNo="0" devices="tripinfo_0_58" vType="Car" speedFactor="1.09" vaporized=""/>
    <tripinfo id="0_46" depart="116.00" departLane="MRT_to_KB_001.37_3" departPos="2.10" departPosLat="0.00" departSpeed="0.00" departDelay="0.47" arrival="257.00" arrivalLane="KBJ_to_CMB_002_2" arrivalPos="146.55" arrivalPosLat="0.00" arrivalSpeed="18.00" duration="141.00" routeLength="299.99" waitingTime="113.00" waitingCount="1" stopTime="0.00" timeLoss="124.24" rerouteNo="0" devices="tripinfo_0_46" vType="Motor_Cycle" speedFactor="1.12" vaporized=""/>
    <tripinfo id="0_65" depart="155.00" departLane="CMB_to_KBJ_001_4" departPos="5.40" departPosLat="0.00" departSpeed="0.00" departDelay="0.11" arrival="258.00" arrivalLane="KB_to_MRT_002_3" arrivalPos="130.27" arrivalPosLat="0.55" arrivalSpeed="15.65" duration="103.00" routeLength="248.74" waitingTime="76.00" waitingCount="1" stopTime="0.00" timeLoss="86.46" rerouteNo="0" devices="tripinfo_0_65" vType="Van" speedFactor="0.94" vaporized=""/>
    <tripinfo id="0_40" depart="107.00" departLane="MRT_to_KB_001.37_2" departPos="5.40" departPosLat="0.00" departSpeed="0.00" departDelay="0.21" arrival="259.00" arrivalLane="KBJ_to_CMB_002_1" arrivalPos="146.55" arrivalPosLat="-0.70" arrivalSpeed="16.50" duration="152.00" routeLength="296.69" waitingTime="123.00" waitingCount="1" stopTime="0.00" timeLoss="133.17" rerouteNo="0" devices="tripinfo_0_40" vType="Van" speedFactor="1.00" vaporized=""/>
    <tripinfo id="0_62" depart="151.00" departLane="MRT_to_KB_001.37_3" departPos="2.10" departPosLat="0.00" departSpeed="0.00" departDelay="0.21" arrival="259.00" arrivalLane="KBJ_to_CMB_001_3" arrivalPos="57.78" arrivalPosLat="0.05" arrivalSpeed="14.91" duration="108.00" routeLength="134.83" waitingTime="89.00" waitingCount="2" stopTime="0.00" timeLoss="98.51" rerouteNo="0" devices="tripinfo_0_62" vType="Motor_Cycle" speedFactor="0.98" vaporized=""/>
    <tripinfo id="0_91" depart="194.00" departLane="CMB_to_KBJ_002_2" departPos="2.65" departPosLat="0.00" departSpeed="0.00" departDelay="0.36" arrival="259.00" arrivalLane="KB_to_MRT_002_3" arrivalPos="130.27" arrivalPosLat="-1.55" arrivalSpeed="16.50" duration="65.00" routeLength="294.61" waitingTime="30.00" waitingCount="1" stopTime="0.00" timeLoss="46.56" rerouteNo="0" devices="tripinfo_0_91" vType="3_Wheeler" speedFactor="1.03" vaporized=""/>
    <tripinfo id="0_42" depart="109.00" departLane="MRT_to_KB_001.37_4" departPos="5.40" departPosLat="0.00" departSpeed="0.00" departDelay="0.94" arrival="260.00" arrivalLane="KBJ_to_CMB_002_3" arrivalPos="146.55" arrivalPosLat="-0.60" arrivalSpeed="14.87" duration="151.00" routeLength="296.69" waitingTime="121.00" waitingCount="1" stopTime="0.00" timeLoss="130.36" rerouteNo="0" devices="tripinfo_0_42" vType="Van" speedFactor="0.90" vaporized=""/>
    <tripinfo id="0_59" depart="148.00" departLane="MRT_to_KB_001.37_2" departPos="2.10" departPosLat="0.00" departSpeed="0.00" departDelay="0.52" arrival="260.00" arrivalLane="KBJ_to_CMB_002_2" arrivalPos="146.55" arrivalPosLat="-0.15" arrivalSpeed="14.21" duration="112.00" routeLength="299.99" waitingTime="77.00" waitingCount="2" stopTime="0.00" timeLoss="91.00" rerouteNo="0" devices="tripinfo_0_59" vType="Motor_Cycle" speedFactor="0.90" vaporized=""/>
    <tripinfo id="0_52" depart="129.00" departLane="MRT_to_KB_001_2" departPos="4.30" departPosLat="0.00" departSpeed="0.00" departDelay="0.54" arrival="261.00" arrivalLane="KBJ_to_CMB_002_1" arrivalPos="146.55" arrivalPosLat="-0.70" arrivalSpeed="16.62" duration="132.00" routeLength="346.58" waitingTime="99.00" waitingCount="1" stopTime="0.00" timeLoss="109.71" rerouteNo="0" devices="tripinfo_0_52" vType="Car" speedFactor="1.02" vaporized=""/>
    <tripinfo id="0_41" depart="108.00" departLane="MRT_to_KB_003_1" departPos="6.35" departPosLat="0.00" departSpeed="0.00" departDelay="0.15" arrival="263.00" arrivalLane="KBJ_to_CMB_002_2" arrivalPos="146.55" arrivalPosLat="-0.32" arrivalSpeed="13.75" duration="155.00" routeLength="395.10" waitingTime="113.00" waitingCount="1" stopTime="0.00" timeLoss="126.23" rerouteNo="0" devices="tripinfo_0_41" vType="Goods_Vehicle" speedFactor="1.05" vaporized=""/>